ITEM: TIMESTEP
0
ITEM: NUMBER OF ATOMS
256
ITEM: BOX BOUNDS pp pp pp
-1.2652034564434828e-01 1.6126520345644412e+01
-1.2652034564434828e-01 1.6126520345644412e+01
-1.2652034564434828e-01 1.6126520345644412e+01
ITEM: ATOMS id type x y z 
1 1 0.858371 0.981505 0.780932 
2 2 2.81467 2.94745 0.951488 
3 1 2.93691 0.835897 2.8667 
4 2 0.73782 2.81059 2.94803 
5 2 4.9573 0.885806 0.835284 
6 2 7.19426 2.94661 0.872695 
7 1 7.01841 0.780892 2.8247 
8 2 4.97841 2.80144 2.98062 
9 2 8.98375 1.00034 0.919197 
10 1 11.0089 2.95384 0.890282 
11 1 11.1467 0.687496 2.79988 
12 1 9.14091 2.89665 2.87938 
13 2 13.0464 0.961601 0.718168 
14 1 15.036 2.87837 0.909849 
15 1 15.1307 0.800018 2.92279 
16 2 13.1508 2.90508 2.83505 
17 1 0.602151 4.9759 0.862511 
18 2 2.83744 6.89291 0.758902 
19 1 2.8161 4.85622 2.7848 
20 2 0.728975 6.93345 2.71395 
21 1 4.94589 4.83569 0.813261 
22 1 6.9895 6.86413 0.909716 
23 1 6.92976 4.86898 2.91022 
24 2 4.99151 6.79508 2.93169 
25 1 9.17172 4.97747 1.00054 
26 1 11.1242 6.93037 0.917481 
27 1 10.9736 5.06524 3.03502 
28 1 9.05383 7.00585 2.97061 
29 1 13.0024 5.05008 0.766817 
30 1 15.0299 6.98795 0.873992 
31 1 14.9656 5.07083 2.77377 
32 1 13.0536 6.9871 2.9138 
33 2 0.74894 9.17199 0.894943 
34 1 2.92422 11.0454 0.851277 
35 2 2.99652 9.05182 3.06554 
36 1 0.790394 10.9465 3.08553 
37 2 5.0066 9.06272 0.900638 
38 2 6.96799 11.0008 0.877941 
39 1 7.19391 8.89323 2.79527 
40 1 4.95004 11.166 2.96583 
41 1 9.17023 8.90912 0.928714 
42 1 11.1918 11.3056 0.781708 
43 1 11.1305 9.03048 2.86927 
44 2 9.22403 11.0379 2.8266 
45 1 12.9562 9.05844 0.860032 
46 1 15.013 10.9701 0.885056 
47 1 14.9628 9.09346 2.89411 
48 1 13.0104 11.0432 2.85205 
49 1 0.826734 12.9441 0.9478 
50 1 2.87083 15.1847 0.683929 
51 2 2.781 13.0649 2.97825 
52 2 0.94576 15.0887 2.76079 
53 1 4.97023 13.0182 0.907808 
54 2 6.94337 14.8777 0.824017 
55 2 7.03936 13.1877 3.04888 
56 1 4.90546 15.003 2.75054 
57 1 9.09904 13.091 0.936477 
58 2 11.2633 14.962 0.767602 
59 2 11.1683 13.0957 2.89335 
60 1 8.96225 15.1811 2.78007 
61 1 13.2778 13.1582 0.776492 
62 1 15.2123 14.9302 0.687094 
63 2 15.1246 13.0558 2.95354 
64 1 13.1701 14.9172 2.859 
65 1 0.785319 0.753134 5.09142 
66 1 2.76101 2.87032 4.79747 
67 2 2.88266 0.838759 6.93559 
68 2 0.909978 2.86021 7.03035 
69 1 4.93677 0.689357 4.76972 
70 1 7.11106 3.07962 4.863 
71 1 6.9321 0.750436 6.91398 
72 2 5.12686 2.74525 7.02014 
73 1 8.99905 0.98456 4.8273 
74 1 11.08 2.81884 4.75601 
75 2 10.8456 0.789666 7.02981 
76 2 9.10503 2.81865 6.83157 
77 2 12.9886 0.752435 5.0509 
78 2 15.0188 2.76197 5.08234 
79 1 15.1505 0.709362 6.94723 
80 1 13.0232 2.94728 7.10476 
81 2 0.762422 4.91418 5.08474 
82 2 2.91999 6.77124 5.12476 
83 1 2.90929 4.85616 7.09805 
84 1 0.914197 6.92333 7.07249 
85 1 4.78899 4.81924 5.04879 
86 1 7.07953 7.02607 4.97506 
87 2 7.22372 5.02891 6.9724 
88 1 5.08003 6.80899 7.04263 
89 1 9.1793 4.80355 4.90227 
90 1 11.0295 7.1658 4.95066 
91 1 10.8989 4.93492 7.02745 
92 1 9.05485 7.01629 7.05909 
93 2 13.0567 4.99644 5.04193 
94 1 15.0448 7.03747 5.01815 
95 1 15.005 4.92479 7.09836 
96 2 12.841 7.00208 7.00916 
97 2 0.690885 8.93373 5.0793 
98 2 2.72737 11.0789 5.00507 
99 2 2.826 8.99635 6.90895 
100 1 0.69875 11.1595 6.90585 
101 1 5.12261 8.82196 5.05554 
102 2 7.17295 10.9553 5.08942 
103 1 7.03291 8.99642 7.0402 
104 2 5.09869 10.9686 7.01938 
105 1 9.06974 9.07168 4.95161 
106 1 10.9968 10.9854 4.96839 
107 1 11.0347 9.13241 6.95124 
108 1 9.03982 11.0926 7.10729 
109 1 13.0009 9.08545 4.96503 
110 1 14.9622 11.0149 5.0096 
111 1 15.0511 9.20119 6.99087 
112 2 12.9358 11.1118 7.06631 
113 1 0.828201 13.0813 5.02569 
114 2 2.87345 15.1261 4.96276 
115 1 2.99804 13.2148 7.12672 
116 1 0.88826 15.0675 7.01749 
117 2 4.96418 13.1149 4.85509 
118 2 7.10194 15.1167 4.82701 
119 2 7.02295 13.0346 7.27325 
120 2 4.9711 15.0382 7.0745 
121 1 9.16609 13.1028 5.01005 
122 1 10.9219 15.2488 4.79336 
123 1 10.9057 13.0718 6.98888 
124 1 8.94073 15.0075 6.96655 
125 1 13.0952 13.0644 4.99936 
126 1 15.1375 15.0747 4.96083 
127 1 15.1232 13.17 6.94056 
128 1 12.9561 14.9086 6.88888 
129 1 0.989977 0.70229 9.10497 
130 1 3.07403 2.7691 8.92294 
131 1 2.95481 0.869376 10.9651 
132 2 1.03031 2.8475 11.0198 
133 2 4.97047 0.778655 9.0984 
134 1 6.93869 2.93999 9.11622 
135 1 7.21994 0.864573 11.1776 
136 2 4.9352 2.85235 11.2294 
137 2 8.99173 0.857602 9.06638 
138 1 11.0106 2.84212 9.12903 
139 1 11.0582 0.870104 11.0697 
140 1 9.10427 2.8648 11.0097 
141 1 12.964 0.919061 8.9119 
142 2 15.1635 2.84427 9.13736 
143 1 15.142 0.917307 10.9954 
144 1 13.1092 2.97159 11.066 
145 2 0.869272 5.03013 9.15589 
146 2 2.88695 6.96356 9.07316 
147 1 2.94555 4.84979 10.9742 
148 1 0.83907 7.24247 11.1286 
149 2 5.08173 4.98967 9.08818 
150 1 7.12444 7.12906 9.06215 
151 1 7.07952 5.00651 10.8903 
152 1 5.04503 6.95064 11.0334 
153 2 9.02103 4.8958 9.09547 
154 1 10.9273 7.08661 9.0757 
155 1 11.189 4.94994 11.2221 
156 1 8.9949 6.92448 11.1589 
157 2 12.9049 4.94151 9.03618 
158 2 15.0142 7.22715 8.96605 
159 1 15.0218 4.96153 10.9396 
160 2 13.0494 7.06476 10.9898 
161 1 0.920604 9.06735 8.90317 
162 1 2.97699 11.1071 9.01528 
163 1 2.92549 9.1119 11.0134 
164 2 0.835226 11.0776 10.904 
165 2 5.00484 9.024 9.11522 
166 1 7.03492 10.9916 9.20753 
167 1 7.17995 8.95667 11.0504 
168 2 4.99429 10.9966 11.1394 
169 1 9.06479 9.00675 9.09095 
170 1 11.061 10.9878 9.08681 
171 1 11.0554 8.97485 11.1646 
172 1 9.19535 11.1298 10.948 
173 1 13.0038 9.19223 9.05628 
174 1 15.0865 11.0692 8.95712 
175 1 15.125 8.915 10.9698 
176 1 13.0768 11.1409 11.1395 
177 2 1.00544 13.1962 8.9812 
178 1 2.87371 15.0853 9.01018 
179 1 3.01639 13.1107 10.9346 
180 1 0.859987 15.1023 11.0551 
181 1 4.95972 13.2113 9.17624 
182 1 7.00851 15.0735 9.26042 
183 2 6.93245 13.0503 11.0603 
184 1 4.84162 15.1177 11.2455 
185 1 9.21397 13.0709 9.08235 
186 1 11.1241 14.9887 8.97375 
187 2 10.9783 13.2441 11.0675 
188 1 8.92301 15.1238 11.0598 
189 1 13.051 13.144 8.96806 
190 2 15.0607 15.0744 8.98235 
191 1 15.1678 13.2545 11.2217 
192 2 13.0641 15.4234 11.0885 
193 2 0.958204 0.923148 13.0474 
194 1 3.00787 3.01155 13.1361 
195 1 2.88274 0.94075 15.1621 
196 1 1.0442 2.95395 15.0258 
197 1 4.8145 0.77026 13.0683 
198 1 7.04349 3.13368 13.0691 
199 2 6.9267 0.896575 14.8313 
200 2 4.94823 2.89235 14.8841 
201 1 9.0754 1.00039 13.121 
202 1 10.9725 3.01025 13.0863 
203 1 10.9709 1.0581 15.127 
204 1 9.07127 2.99431 15.0089 
205 1 13.0179 1.01858 13.2011 
206 2 15.1115 2.90248 13.0662 
207 1 15.1207 0.910061 15.1745 
208 1 12.9555 2.92202 15.1453 
209 2 0.762796 5.14913 12.9068 
210 2 2.95981 7.17084 12.9867 
211 2 2.93968 5.02318 14.9519 
212 2 0.702485 7.0958 15.1104 
213 2 5.04328 5.06558 12.9855 
214 1 6.97004 7.06205 13.05 
215 1 7.1177 4.96837 15.2183 
216 2 5.17662 7.02311 15.0359 
217 1 8.91354 4.92799 13.0508 
218 2 10.9438 6.85471 13.2095 
219 1 10.9805 4.78005 15.2133 
220 1 8.87553 6.92383 15.1633 
221 2 13.0428 4.98579 13.2051 
222 1 14.9333 7.07318 12.998 
223 2 15.0183 4.94204 15.2101 
224 1 13.0454 7.13542 15.042 
225 2 0.783094 9.13311 12.9497 
226 1 2.75723 11.0616 12.8828 
227 1 2.90143 9.02255 14.9685 
228 2 0.935959 11.1561 15.0809 
229 1 4.90772 8.9997 13.0203 
230 2 7.23657 10.7972 13.1326 
231 1 7.16973 8.91899 15.1753 
232 2 4.94774 10.9879 14.9507 
233 1 9.14304 8.88969 13.3314 
234 2 10.9706 11.2457 12.9826 
235 1 11.0585 9.00572 15.144 
236 2 9.12581 11.164 15.2473 
237 1 13.0065 9.25397 13.1432 
238 2 15.056 11.1203 13.0439 
239 1 14.8687 9.16636 15.1908 
240 1 13.066 11.0562 15.0772 
241 1 0.929867 13.0074 13.0774 
242 1 2.92632 15.0451 13.2782 
243 2 2.99419 13.1062 15.2972 
244 1 0.901747 15.1157 15.0859 
245 1 5.01393 13.1372 13.037 
246 1 6.85198 14.9953 13.062 
247 1 6.94311 12.9634 14.9556 
248 1 5.05842 15.1353 15.0877 
249 1 8.92235 13.1773 13.0644 
250 2 11.1414 15.2207 13.1566 
251 1 11.2637 13.0916 14.9513 
252 2 8.97263 14.9918 15.0334 
253 1 13.0931 13.1437 13.1316 
254 1 15.1505 15.1843 12.9997 
255 1 15.1779 13.1078 14.9227 
256 1 13.1507 15.1693 15.0387 
ITEM: TIMESTEP
1000
ITEM: NUMBER OF ATOMS
256
ITEM: BOX BOUNDS pp pp pp
-1.1707117280505007e-01 1.6117071172805105e+01
-1.1707117280505007e-01 1.6117071172805105e+01
-1.1707117280505007e-01 1.6117071172805105e+01
ITEM: ATOMS id type x y z 
1 1 0.91731 0.850837 0.727051 
2 2 2.87151 2.85252 0.935375 
3 1 2.68253 0.817418 2.91706 
4 2 0.863724 2.96961 2.7986 
5 2 4.88682 0.855561 0.883545 
6 2 7.14699 3.07351 0.913692 
7 1 7.08505 0.83527 2.91442 
8 2 4.9715 2.85613 2.92873 
9 2 9.02878 1.0212 0.751712 
10 1 10.9421 3.0046 0.679157 
11 1 11.0307 0.769411 2.9816 
12 1 9.14624 2.80815 2.87058 
13 2 13.0125 0.868466 0.886279 
14 1 15.08 2.87231 0.813995 
15 1 15.0619 0.882154 2.75517 
16 2 13.1487 2.90462 2.83888 
17 1 0.959093 4.84115 0.827516 
18 2 2.90291 6.84605 1.09847 
19 1 2.87609 4.89705 3.03618 
20 2 0.742727 6.98369 2.87411 
21 1 5.04905 4.98346 1.17266 
22 1 7.03056 7.04346 0.785873 
23 1 7.16916 4.79797 2.9825 
24 2 5.12554 6.93488 2.98411 
25 1 9.00751 5.12134 1.00086 
26 1 11.0221 7.07926 0.968156 
27 1 10.9644 4.95919 2.86719 
28 1 8.9658 6.87016 2.97976 
29 1 13.0675 5.02593 0.860627 
30 1 15.0369 6.91697 0.963676 
31 1 15.2067 5.14624 2.89039 
32 1 12.9823 6.96502 2.92801 
33 2 0.684972 9.18341 1.08217 
34 1 3.06687 11.034 0.70977 
35 2 2.89574 9.20625 2.80117 
36 1 0.715258 11.242 2.89279 
37 2 4.99325 9.02915 0.747488 
38 2 7.15407 10.929 0.90787 
39 1 7.03896 9.0007 2.97958 
40 1 5.11144 10.9632 3.00263 
41 1 9.0316 8.89315 0.900062 
42 1 11.2302 10.9743 0.729442 
43 1 11.1252 8.88258 2.91275 
44 2 9.20721 10.881 2.88646 
45 1 13.237 8.96772 0.900635 
46 1 14.9059 11.1876 0.803584 
47 1 15.0728 9.00961 3.03196 
48 1 13.0321 10.8967 2.87828 
49 1 0.861504 13.2028 0.752422 
50 1 3.03942 15.1585 0.619389 
51 2 2.93877 13.1574 2.61834 
52 2 0.797058 14.9961 2.87419 
53 1 4.95703 13.0555 0.759414 
54 2 7.04313 15.0403 1.02372 
55 2 7.19187 12.9827 2.79581 
56 1 5.04368 14.9763 2.79801 
57 1 9.13406 12.9435 0.776465 
58 2 11.0833 15.0803 0.957105 
59 2 11.2137 13.0196 2.96768 
60 1 9.02912 15.2074 3.01932 
61 1 13.116 13.1893 0.89399 
62 1 15.0267 15.1463 0.658652 
63 2 14.9899 13.0822 2.95924 
64 1 13.006 15.1004 2.99468 
65 1 0.629296 0.799251 4.75688 
66 1 2.9098 2.82929 4.9112 
67 2 2.66264 0.772347 6.77845 
68 2 0.866281 2.88281 7.0049 
69 1 5.06179 0.833532 4.92515 
70 1 7.02322 2.90379 4.80588 
71 1 6.95749 0.718143 6.93831 
72 2 4.93406 2.78446 6.86792 
73 1 8.98875 0.953058 4.8533 
74 1 11.0358 2.76239 4.87582 
75 2 11.0437 0.940832 6.95534 
76 2 9.07836 2.85375 6.87986 
77 2 13.284 0.959397 5.00462 
78 2 15.1474 3.10616 4.96331 
79 1 15.1925 0.72088 6.87475 
80 1 13.0671 2.77529 7.10621 
81 2 0.825171 4.99265 5.07727 
82 2 2.80233 6.93979 5.24772 
83 1 2.93861 4.81316 6.97053 
84 1 0.80405 7.09953 7.1076 
85 1 5.05902 4.86209 4.91974 
86 1 7.17798 6.79934 4.95786 
87 2 7.03118 4.92031 6.90688 
88 1 5.07505 6.90953 6.9472 
89 1 9.0327 4.67793 5.00636 
90 1 10.7866 7.02742 4.98941 
91 1 10.9782 4.90613 7.0219 
92 1 9.17965 6.88053 6.9908 
93 2 12.9227 4.9497 4.91197 
94 1 14.9019 7.02618 5.03903 
95 1 15.0201 5.08865 7.00573 
96 2 12.856 6.9377 7.00684 
97 2 0.641559 9.07277 5.01174 
98 2 2.92655 10.9782 4.96925 
99 2 2.73552 9.1322 7.11336 
100 1 0.836676 11.0485 6.95642 
101 1 4.99924 8.87202 5.02569 
102 2 7.12842 10.9513 5.06012 
103 1 7.17387 8.92048 7.04575 
104 2 4.92074 10.9928 7.16646 
105 1 9.02041 8.93405 5.03247 
106 1 10.9864 11.0448 5.07136 
107 1 11.0214 9.12418 7.04065 
108 1 9.09718 10.9078 7.11864 
109 1 12.8358 9.03216 4.99749 
110 1 15.0324 11.1269 5.08331 
111 1 14.8601 9.15697 7.08562 
112 2 12.9869 11.2102 7.06368 
113 1 0.906574 12.9506 5.0868 
114 2 2.91114 15.0272 4.86094 
115 1 2.84678 12.9819 7.04615 
116 1 1.02215 14.9941 6.94179 
117 2 4.92793 12.9063 4.88157 
118 2 7.09886 14.9182 4.83132 
119 2 7.16358 13.1333 7.08675 
120 2 4.74877 15.2072 7.01482 
121 1 9.16936 13.1834 5.05449 
122 1 11.1032 15.2791 4.89818 
123 1 10.9665 13.192 7.03763 
124 1 9.10472 15.1996 7.01205 
125 1 12.9417 13.106 5.03574 
126 1 14.9662 14.9694 5.03817 
127 1 15.1453 13.0578 6.97564 
128 1 12.9635 15.0356 6.904 
129 1 0.924042 0.858306 9.04733 
130 2 3.02437 2.80677 8.99547 
131 1 3.11581 0.79799 11.0859 
132 2 0.908843 2.93984 10.9061 
133 2 5.23951 0.764779 9.14315 
134 1 7.01038 2.86292 9.2652 
135 1 7.24885 0.930058 11.3746 
136 1 4.98878 2.9066 11.1015 
137 2 8.96475 0.85868 9.21378 
138 1 10.9765 2.69965 9.08294 
139 1 11.1282 0.924733 11.2356 
140 1 9.0656 3.09742 11.2665 
141 1 13.0868 0.744946 8.98288 
142 2 15.0524 2.80068 9.10772 
143 1 15.1338 0.473137 10.9237 
144 1 13.2614 2.90839 11.0507 
145 2 0.667877 4.88909 8.96982 
146 2 2.82012 6.90931 9.05782 
147 1 2.92696 4.92507 10.9514 
148 1 0.795606 7.02097 10.9733 
149 2 5.127 4.8549 9.09616 
150 1 7.13947 7.0502 8.96189 
151 1 6.99852 4.90368 11.0355 
152 1 5.17619 6.94059 11.1305 
153 2 9.07728 4.85821 9.16002 
154 1 10.8604 7.03712 9.208 
155 1 11.0612 5.03437 11.1212 
156 1 8.93522 7.03413 11.0837 
157 2 12.8019 4.81005 9.01433 
158 2 14.9454 7.02754 9.14849 
159 1 14.9404 4.93363 11.0425 
160 2 12.8826 7.18985 10.9616 
161 1 0.82353 8.9706 8.91716 
162 1 3.00662 11.1614 9.13681 
163 1 3.01185 8.96858 10.9348 
164 2 0.920269 11.0996 11.0805 
165 2 5.05402 8.96592 9.00118 
166 1 6.97025 11.1329 8.96791 
167 1 6.98273 8.95669 10.9478 
168 2 5.00492 11.0284 11.0222 
169 1 9.08683 9.00594 9.09248 
170 1 10.8963 11.0954 9.2486 
171 1 10.9702 9.12323 11.097 
172 1 9.0501 11.0948 11.0283 
173 1 13.1436 9.21893 9.07685 
174 1 15.1746 11.123 9.05416 
175 1 14.9608 9.19875 11.0413 
176 1 13.0668 11.1184 10.9397 
177 2 0.882498 13.1637 9.01855 
178 1 2.95788 15.162 9.153 
179 1 3.02146 13.2422 11.0001 
180 1 0.95643 15.0901 11.0589 
181 1 5.12017 13.0376 9.04226 
182 1 7.04293 14.9746 9.0171 
183 2 7.07421 13.125 10.9759 
184 1 5.15378 15.2201 11.1237 
185 1 8.98076 13.1566 9.03562 
186 1 11.0539 15.1234 8.9937 
187 2 11.0569 13.1113 11.1286 
188 1 9.02853 15.2021 11.136 
189 1 13.1268 13.1047 8.95556 
190 2 15.0767 15.0688 8.89473 
191 1 15.0844 13.0916 11.1571 
192 2 12.9923 15.1857 11.021 
193 2 0.912268 0.893048 12.8864 
194 1 2.90329 2.82489 12.8885 
195 1 2.86323 0.906786 14.9003 
196 1 0.913276 2.81765 15.0514 
197 1 4.8274 1.03796 13.0726 
198 1 6.90888 2.97895 13.2068 
199 2 6.99133 0.909436 14.9291 
200 2 4.92108 2.93754 15.1324 
201 1 9.08961 1.03002 13.0999 
202 1 11.1122 2.93711 13.1835 
203 1 11.0857 0.960516 15.095 
204 1 9.08289 3.08193 14.9142 
205 1 13.0709 1.00039 13.1292 
206 2 15.0925 2.94002 13.1865 
207 1 15.1376 0.752615 14.979 
208 1 13.0339 2.88985 15.123 
209 2 0.953006 4.97906 12.9009 
210 2 2.94141 7.09045 12.9414 
211 2 2.89316 4.85436 15.1321 
212 2 0.690817 7.08516 15.3175 
213 2 4.84094 4.90934 13.0143 
214 1 6.94678 6.99449 13.2353 
215 1 7.04678 5.06378 15.1264 
216 2 4.89047 6.98563 15.1474 
217 1 8.9374 5.14188 13.1093 
218 2 10.9573 7.18611 13.0817 
219 1 11.0168 5.0581 15.0883 
220 1 9.13256 7.07849 15.1762 
221 2 12.9726 5.10738 13.153 
222 1 15.0248 7.13929 13.137 
223 2 15.0085 4.94066 15.0449 
224 1 13.121 7.13725 15.178 
225 2 0.89176 8.98424 12.9314 
226 1 3.00696 10.9275 12.9815 
227 1 2.77616 8.9689 15.1817 
228 2 0.825596 11.1416 15.1233 
229 1 5.04147 9.05193 13.0284 
230 2 7.0334 11.0022 12.9601 
231 1 6.96162 8.9192 14.9243 
232 2 5.08856 11.0822 15.1688 
233 1 9.01187 9.1492 13.0464 
234 2 11.1745 11.0227 13.0271 
235 1 11.0827 9.01139 15.1965 
236 2 9.04629 10.958 15.0962 
237 1 13.0589 9.09505 12.9684 
238 2 14.9816 11.2084 13.0988 
239 1 14.9665 9.02023 15.1288 
240 1 13.0497 11.068 15.0204 
241 1 1.01907 13.2539 12.9881 
242 1 3.15518 15.0648 12.9431 
243 2 2.85756 13.0979 14.9613 
244 1 0.947182 15.1063 15.0303 
245 1 5.0072 13.1338 12.999 
246 1 7.03403 15.1717 12.977 
247 1 6.98675 13.1815 15.0803 
248 1 5.00144 15.0365 14.9794 
249 2 9.03317 13.0983 13.1789 
250 2 10.9992 15.3036 13.1465 
251 1 11.0122 13.043 15.1787 
252 2 8.96272 15.1228 15.0948 
253 1 12.8671 13.2469 13.2089 
254 1 15.1256 15.0639 13.0312 
255 1 15.1188 13.1331 15.1766 
256 1 13.1266 15.2222 14.9793 
ITEM: TIMESTEP
2000
ITEM: NUMBER OF ATOMS
256
ITEM: BOX BOUNDS pp pp pp
-1.2995920715975820e-01 1.6129959207159789e+01
-1.2995920715975820e-01 1.6129959207159789e+01
-1.2995920715975820e-01 1.6129959207159789e+01
ITEM: ATOMS id type x y z 
1 1 0.663578 0.852551 0.948763 
2 2 2.79665 2.7317 0.842104 
3 1 3.10471 0.715498 2.95244 
4 2 0.889907 2.79989 2.92272 
5 2 5.00884 0.864311 1.0345 
6 2 7.05089 3.13379 0.889532 
7 1 7.11516 1.10447 2.90935 
8 2 5.04218 3.06501 3.09156 
9 2 9.09884 1.02826 0.854435 
10 1 11.0964 2.98103 0.837075 
11 1 10.9926 1.02293 2.94944 
12 1 9.04081 2.91178 2.8607 
13 2 13.0183 0.99678 0.959271 
14 1 15.0277 2.86623 0.905248 
15 1 15.0396 0.856023 2.90197 
16 2 12.9849 2.93375 2.95013 
17 1 0.623264 4.79149 0.9441 
18 2 2.88505 6.90399 0.987353 
19 1 2.93878 4.97365 2.82198 
20 2 0.7162 6.85549 2.99276 
21 1 4.86766 4.87078 0.977772 
22 1 7.05731 6.79588 0.785619 
23 1 7.10808 5.05402 3.01886 
24 2 5.03474 6.91231 2.96025 
25 1 9.08636 5.07673 0.93264 
26 1 11.0106 7.02243 0.990999 
27 1 10.9115 4.94286 2.88105 
28 1 9.10919 6.99786 2.91083 
29 1 13.091 4.94758 0.986706 
30 1 15.0122 7.01563 0.905721 
31 1 15.0845 4.77739 2.98985 
32 1 13.0774 7.01422 2.9185 
33 2 0.83241 9.0325 0.809422 
34 1 2.91806 10.9861 0.724297 
35 2 2.86061 9.12096 3.05776 
36 1 0.872701 10.8804 2.76313 
37 2 5.11365 8.82335 0.932358 
38 2 7.13116 10.9185 0.930382 
39 1 6.96804 8.95974 2.94049 
40 1 4.98463 10.9854 3.00368 
41 1 8.94523 8.96613 1.01398 
42 1 11.0593 11.0549 0.956035 
43 1 11.0692 8.88557 3.01723 
44 2 9.09998 10.9126 2.92936 
45 1 12.9595 8.97082 0.757028 
46 1 15.0641 11.0998 0.808567 
47 1 15.0523 9.08516 2.88925 
48 1 13.064 10.9656 2.93714 
49 1 0.742667 13.2554 0.826642 
50 1 2.93656 15.1243 0.827299 
51 2 2.7127 12.9553 2.74058 
52 2 0.864281 15.2327 2.8083 
53 1 5.10827 12.9719 0.885651 
54 2 7.25843 15.0147 0.96372 
55 2 7.02838 13.0875 2.91987 
56 1 4.97442 14.9761 2.97509 
57 1 9.00943 12.9571 0.873349 
58 2 11.1728 15.1625 0.832201 
59 2 11.1193 13.1638 2.93707 
60 1 9.26891 15.2502 2.94904 
61 1 13.1595 13.1525 0.845946 
62 1 15.0256 15.0873 0.665715 
63 2 15.0557 12.9244 2.7872 
64 1 13.2565 15.0502 2.9855 
65 1 0.74395 0.84922 4.8815 
66 1 2.83226 2.77632 4.85957 
67 2 3.02783 0.786719 6.80537 
68 2 0.868265 2.58055 6.91854 
69 1 5.08367 0.83405 4.80023 
70 1 7.21433 2.95092 4.88584 
71 1 7.11775 0.801623 7.11376 
72 2 5.19542 2.823 6.80343 
73 1 9.03886 0.984746 4.81042 
74 1 10.9105 2.86744 4.88056 
75 2 11.0849 0.817978 6.97336 
76 2 9.07265 2.88756 6.86207 
77 2 13.0848 0.789687 4.96109 
78 2 15.0466 2.84979 5.07377 
79 1 15.0879 0.692009 6.92912 
80 1 12.9535 2.92239 7.08376 
81 2 0.835714 4.89043 5.21014 
82 2 2.79343 6.83279 4.99622 
83 1 3.20424 4.72934 6.78342 
84 1 0.680023 7.00895 6.87699 
85 1 5.02455 5.09559 5.01822 
86 1 7.02732 7.12328 5.04438 
87 2 6.91615 4.96657 7.01978 
88 1 5.20688 7.12925 7.0429 
89 1 8.92121 5.00021 4.99908 
90 1 10.9373 6.85108 4.93913 
91 1 10.9346 4.98006 6.90125 
92 1 8.91278 6.95594 6.96892 
93 2 13.1301 4.92635 5.03236 
94 1 14.8708 6.99513 4.9623 
95 1 15.0158 4.79029 7.2208 
96 2 12.9832 7.02925 6.90329 
97 2 0.684556 9.09729 4.81906 
98 2 2.75107 11.2276 4.91501 
99 2 2.93735 8.91877 6.80254 
100 1 0.874169 10.8976 6.96096 
101 1 4.95318 8.93437 4.98246 
102 2 7.03706 10.8257 5.10804 
103 1 7.08471 8.98709 7.17222 
104 2 4.99765 10.9212 6.90894 
105 1 9.1637 8.76949 5.02569 
106 1 11.1534 11.1043 4.88214 
107 1 10.9599 9.13017 7.16661 
108 1 9.08768 11.0251 6.91749 
109 1 12.9663 9.08371 4.96955 
110 1 15.0192 11.2559 5.18015 
111 1 14.9991 9.08721 6.89599 
112 2 12.9192 11.1262 6.95381 
113 1 0.714062 13.1714 4.98726 
114 2 2.83433 14.9686 5.00403 
115 1 2.95808 13.109 7.10949 
116 1 0.861676 15.1106 7.11391 
117 2 5.00145 12.9184 4.89597 
118 2 7.15473 15.2957 4.78097 
119 2 7.05394 13.0633 6.93096 
120 2 5.01199 14.9889 7.00563 
121 1 9.21444 13.0632 5.05031 
122 1 10.9178 15.1443 5.01955 
123 1 11.0655 13.1768 7.06241 
124 1 8.95732 15.0599 6.98406 
125 1 12.9507 13.0295 5.02715 
126 1 15.0551 14.9344 4.88536 
127 1 14.9937 13.1448 7.01539 
128 1 13.0338 15.0422 6.94833 
129 1 1.0046 0.814327 9.07955 
130 2 2.99022 2.92002 8.91567 
131 1 3.0593 0.853907 11.1381 
132 2 0.907265 2.8492 11.0474 
133 2 5.16085 0.813474 9.06587 
134 1 7.09323 2.97924 9.05172 
135 1 7.11894 0.830385 11.1416 
136 1 5.097 2.74434 10.9664 
137 2 9.06449 0.874875 9.12336 
138 1 11.0966 2.94837 9.18465 
139 1 11.2094 0.893407 11.0231 
140 1 9.06589 3.1302 11.0589 
141 1 13.0098 1.04077 8.9598 
142 2 15.2228 2.90799 9.10378 
143 1 15.0624 0.78798 10.9924 
144 1 13.0902 2.90914 11.1294 
145 2 1.01025 4.91877 8.99644 
146 2 2.92116 6.98758 8.9786 
147 1 2.905 5.05608 10.934 
148 1 0.806242 7.07393 10.9889 
149 2 5.01702 4.99027 9.18389 
150 1 7.16205 7.15442 9.04571 
151 1 7.06651 4.76016 11.071 
152 1 5.11701 7.10784 11.0767 
153 2 9.15106 4.91213 9.01405 
154 1 11.0145 7.0184 9.0122 
155 1 11.0684 4.97509 11.1317 
156 1 8.82222 7.09632 11.1278 
157 2 12.9517 5.05236 9.12272 
158 2 15.1867 7.0784 9.02172 
159 1 15.1123 5.03722 11.0121 
160 2 13.0106 7.19943 10.9332 
161 1 0.925585 8.96492 8.98373 
162 1 2.91543 11.2197 8.7922 
163 1 2.85109 9.05214 11.0738 
164 2 1.08236 11.1794 10.9992 
165 2 4.9316 8.97702 9.02493 
166 1 6.98395 10.9571 8.98736 
167 1 6.99234 9.0615 11.0538 
168 2 4.805 11.0728 10.9162 
169 1 9.0326 9.01328 9.05257 
170 1 11.0462 11.0913 8.98855 
171 1 11.062 9.0651 11.022 
172 1 9.11753 10.9812 10.9852 
173 1 13.0531 9.16811 8.98055 
174 1 15.1161 10.9321 8.96883 
175 1 15.119 9.16257 11.0748 
176 1 13.2657 11.0908 10.9171 
177 2 0.91071 13.1635 8.99545 
178 1 3.00096 15.1453 9.12683 
179 1 3.03213 13.1031 11.0779 
180 1 0.746444 15.1028 11.0493 
181 1 4.96686 13.1064 9.09631 
182 1 7.11994 15.0544 8.98114 
183 2 7.0581 13.1677 10.9457 
184 1 4.85639 15.2055 11.0745 
185 1 9.02164 12.9643 9.043 
186 1 11.1655 15.0604 8.9776 
187 2 11.1196 13.03 11.0047 
188 1 9.10921 15.0707 10.9547 
189 1 13.3309 12.993 9.13091 
190 2 14.9887 15.1617 9.04643 
191 1 15.1567 12.9785 11.1382 
192 2 13.0969 15.1416 11.1679 
193 2 0.895777 0.937595 13.0515 
194 1 3.03839 2.87254 12.9626 
195 1 2.94092 0.757362 15.0807 
196 1 0.78432 2.79636 15.0972 
197 1 4.87618 0.794207 13.123 
198 1 6.86885 2.90849 13.0206 
199 2 7.02241 0.887634 14.9842 
200 2 4.88032 3.00033 15.1194 
201 1 9.02544 1.06015 13.036 
202 1 11.0107 3.08035 12.9686 
203 1 11.0925 1.05407 15.0565 
204 1 9.14789 3.23381 14.9729 
205 1 13.1973 0.893664 13.1425 
206 2 15.0635 2.91537 12.9076 
207 1 15.0592 0.910537 15.0984 
208 1 13.0888 2.85864 15.1985 
209 2 0.765358 5.0527 12.9897 
210 2 2.92404 6.95893 13.0705 
211 2 2.55018 4.86807 15.2134 
212 2 0.710792 7.13862 14.9361 
213 2 4.80487 4.85049 12.8404 
214 1 6.91993 6.85054 13.2186 
215 1 6.91 5.01026 15.0317 
216 2 4.78859 7.05715 15.1265 
217 1 8.98304 5.00061 13.0622 
218 2 10.9573 7.09698 13.1128 
219 1 11.0157 5.01446 15.0541 
220 1 9.17923 6.97888 15.2398 
221 2 13.0461 5.03607 13.2211 
222 1 15.0296 7.08688 13.0834 
223 2 14.9959 4.96699 15.1256 
224 1 13.0251 7.13951 15.2791 
225 2 0.84902 9.04253 12.9175 
226 1 2.93616 10.9551 13.0584 
227 1 2.77247 9.13882 15.0561 
228 2 0.793052 11.2922 14.9517 
229 1 4.78361 8.95859 12.9607 
230 2 6.99416 10.9447 13.1124 
231 1 6.96077 8.84161 15.1818 
232 2 4.9487 11.1085 15.129 
233 1 8.92911 8.87702 13.0525 
234 2 11.1446 11.0141 13.2579 
235 1 11.0281 8.97433 15.2585 
236 2 9.07596 10.8984 15.2176 
237 1 13.0461 9.14266 13.0231 
238 1 15.321 11.0757 13.0144 
239 1 14.9972 9.30394 14.9326 
240 1 12.9666 11.1454 15.2382 
241 1 0.814702 13.2301 13.0587 
242 1 2.90952 15.2191 13.0261 
243 2 2.88386 13.2158 14.9699 
244 1 0.906965 15.1101 15.0908 
245 1 5.22279 13.3207 13.1517 
246 1 7.0112 15.1114 13.0343 
247 1 6.96019 13.0779 15.1574 
248 1 4.90401 15.1087 15.163 
249 2 8.84255 13.0957 13.1589 
250 2 11.0365 15.2747 13.1869 
251 1 10.945 12.9825 15.326 
252 2 9.06619 15.0518 15.0937 
253 1 13.2279 12.929 13.0506 
254 1 15.1171 15.2112 13.2225 
255 1 14.9472 13.0288 15.0067 
256 1 13.1092 15.1565 15.12 
ITEM: TIMESTEP
3000
ITEM: NUMBER OF ATOMS
256
ITEM: BOX BOUNDS pp pp pp
-1.2434503290967665e-01 1.6124345032909719e+01
-1.2434503290967665e-01 1.6124345032909719e+01
-1.2434503290967665e-01 1.6124345032909719e+01
ITEM: ATOMS id type x y z 
1 1 0.87327 0.815281 0.73269 
2 2 2.9159 2.85363 0.988303 
3 1 3.0431 0.845893 2.8953 
4 2 0.789886 2.73931 2.96875 
5 2 4.81474 0.828962 0.745423 
6 2 6.85474 3.0785 0.820862 
7 1 7.11922 0.867313 3.18082 
8 2 5.18213 2.98422 2.9488 
9 2 9.22071 0.976523 1.00037 
10 1 11.0184 2.96341 0.840853 
11 1 11.1338 0.821972 3.14632 
12 1 9.26358 2.98437 3.04745 
13 2 13.0132 1.00691 0.761514 
14 1 15.1186 2.90537 0.909745 
15 1 14.9134 0.772908 2.83111 
16 2 12.9736 3.02879 2.9269 
17 1 0.842442 4.74481 0.914221 
18 2 2.75573 6.7715 0.84267 
19 1 2.79044 4.71554 2.92958 
20 2 0.659846 6.87775 2.90958 
21 1 4.92859 4.9925 0.946791 
22 1 6.97391 6.98794 0.912004 
23 1 7.06453 4.96825 2.99075 
24 2 4.89584 6.78126 2.85554 
25 1 9.02835 4.94589 1.02668 
26 1 11.0722 7.11394 1.01694 
27 1 11.1301 5.07915 2.72799 
28 1 9.24776 7.033 3.13051 
29 1 13.084 4.9599 0.922961 
30 1 14.924 6.93574 1.02129 
31 1 14.9168 4.98865 2.96705 
32 1 13.0487 6.8715 2.98929 
33 2 0.619751 9.05272 1.01044 
34 1 3.03643 11.127 0.92154 
35 2 2.80834 9.06966 2.82193 
36 1 0.779871 11.1205 2.83574 
37 2 4.86762 9.06693 0.893523 
38 2 6.88748 11.0506 0.808613 
39 1 7.03565 8.82011 2.78825 
40 1 5.00248 10.8875 3.04595 
41 1 8.93886 8.88662 0.784207 
42 1 11.1146 10.8764 0.860752 
43 1 11.2243 9.13938 2.90987 
44 2 9.08824 10.8523 2.75355 
45 1 13.1182 8.96641 0.865707 
46 1 14.9024 11.2219 0.916881 
47 1 14.9798 8.95697 3.10086 
48 1 13.0561 11.014 3.03981 
49 1 0.830676 12.909 0.838193 
50 1 3.07936 15.1683 0.964409 
51 2 2.94803 12.9948 2.90559 
52 2 0.880882 15.0867 2.60033 
53 1 5.03262 13.1957 0.870369 
54 2 7.13572 15.2354 1.20365 
55 2 7.04319 12.9474 3.01547 
56 1 5.02994 15.1166 2.94 
57 1 9.11359 13.0734 0.813949 
58 2 11.2089 15.0409 0.576705 
59 2 10.9673 13.0778 2.87153 
60 1 9.18515 15.0659 3.04718 
61 1 13.0913 13.128 0.63999 
62 1 15.0833 14.998 0.852304 
63 2 14.9975 13.1359 2.93875 
64 1 12.9872 15.0521 3.02107 
65 1 0.884583 0.718584 4.87552 
66 1 3.03114 2.80275 4.90172 
67 2 3.00908 0.687873 6.87389 
68 2 0.89427 2.70679 6.76969 
69 1 5.1803 0.91798 4.96391 
70 1 7.19712 3.02953 4.83039 
71 1 7.14083 0.778448 6.95656 
72 2 5.04232 2.86978 7.00416 
73 1 9.04065 0.960945 4.97144 
74 1 10.9987 3.06506 4.92752 
75 2 10.9453 0.875557 7.12882 
76 2 9.01886 3.03436 6.96692 
77 2 12.9477 0.798259 5.0663 
78 2 14.9623 2.86924 4.86519 
79 1 15.13 0.796584 6.92615 
80 1 13.069 2.83851 7.01818 
81 2 0.722555 4.78774 4.92869 
82 2 2.81586 6.76081 5.04828 
83 1 2.82763 4.7839 6.94699 
84 1 0.869703 6.94874 6.82819 
85 1 5.05256 4.95853 4.91451 
86 1 6.91199 7.01958 4.98772 
87 2 6.98755 5.054 6.87375 
88 1 4.94011 6.90524 7.04889 
89 1 9.08017 5.09297 5.0432 
90 1 11.2237 7.25617 4.95445 
91 1 11.0016 5.26507 6.92194 
92 1 8.99703 7.10322 7.05864 
93 2 12.9804 4.98946 5.04991 
94 1 15.058 6.89183 4.90791 
95 1 15.0408 5.06087 7.07334 
96 2 13.1672 7.09224 6.96381 
97 2 0.715674 9.21976 4.99229 
98 2 2.83794 11.1856 4.96045 
99 2 2.68131 9.10575 7.07387 
100 1 0.762133 11.363 6.90015 
101 2 4.97343 8.8361 4.92533 
102 2 7.0646 10.8039 4.91082 
103 1 6.93278 9.06178 7.15204 
104 2 5.02631 11.1726 7.17956 
105 1 8.89578 8.79078 4.94105 
106 1 11.1192 10.8375 4.926 
107 1 11.0613 9.12477 7.03898 
108 1 9.06113 10.9891 6.91464 
109 1 13.1201 9.10465 5.08857 
110 1 14.8857 11.0214 4.97123 
111 1 15.2266 9.23714 7.13526 
112 2 13.0417 11.1874 6.99573 
113 1 0.881833 13.2332 4.85791 
114 2 2.90086 15.146 4.95402 
115 1 3.01301 13.2337 6.96986 
116 1 0.764934 15.0412 6.90927 
117 2 4.93084 13.0793 4.88152 
118 2 7.19146 14.9811 4.98448 
119 2 7.06261 12.9868 6.96392 
120 2 5.1665 15.0928 6.94994 
121 1 9.11349 12.826 4.98624 
122 1 10.9921 14.9942 5.13198 
123 1 10.9792 12.9905 7.03805 
124 1 9.01734 15.1332 7.1235 
125 1 12.9627 13.0929 4.97198 
126 1 15.1006 15.1337 4.87095 
127 1 14.8817 13.2737 6.81284 
128 1 12.9512 15.026 7.04554 
129 1 0.889806 0.868905 8.89657 
130 2 2.95904 2.93613 8.87831 
131 1 2.97412 0.681529 10.9511 
132 2 0.93582 2.78229 11.1531 
133 2 5.08422 0.80917 9.10254 
134 1 6.92106 3.04961 9.10999 
135 1 6.98529 0.84945 11.1548 
136 1 5.04983 2.77538 11.3084 
137 2 9.07063 1.04825 9.29117 
138 1 10.9949 2.94159 9.10459 
139 1 11.1643 1.06183 11.0555 
140 1 9.10506 3.04276 11.1177 
141 1 13.0931 0.860206 8.99595 
142 2 15.2203 2.8814 8.90426 
143 1 15.2347 0.959186 11.0458 
144 1 13.0606 3.07222 10.9399 
145 2 0.835872 5.01078 9.00078 
146 2 2.83573 6.92001 9.22944 
147 1 2.94471 4.96088 11.2291 
148 1 0.941843 6.88818 11.2004 
149 2 4.94491 4.85244 9.25192 
150 1 6.9205 6.93569 9.02328 
151 1 7.06278 5.13849 11.3039 
152 1 5.07263 7.16637 11.1312 
153 2 8.87539 5.03001 8.97297 
154 1 11.1146 7.06057 8.98064 
155 1 10.9389 4.89784 10.9871 
156 1 8.96091 7.05453 10.9805 
157 2 12.9961 4.93506 8.95829 
158 2 15.2165 6.94251 9.05909 
159 1 15.1577 4.85708 11.0136 
160 2 13.1636 7.0218 11.0135 
161 1 0.864163 9.25891 9.0873 
162 1 2.79013 11.1859 9.03079 
163 1 2.84665 9.19105 11.0095 
164 2 0.815582 11.0807 11.0892 
165 2 4.90657 9.02487 9.0501 
166 1 7.11358 11.0213 9.1047 
167 1 7.02882 8.98684 10.981 
168 2 4.8364 11.0244 11.0843 
169 1 8.98749 8.92296 9.1101 
170 1 11.0042 10.9179 9.01179 
171 1 11.0676 8.94629 10.8245 
172 1 9.18247 10.8544 10.9123 
173 1 13.1934 9.22151 9.04825 
174 1 15.2329 11.1303 9.05197 
175 1 15.2082 9.14176 10.9792 
176 1 13.0881 11.1546 11.0026 
177 2 0.897537 13.283 9.00094 
178 1 2.9821 15.1233 8.98476 
179 1 2.97113 13.0273 11.0784 
180 1 1.02037 15.1162 10.9981 
181 1 4.9684 13.165 8.99832 
182 1 7.14743 15.2908 9.07366 
183 2 7.16807 13.1406 10.8946 