ITEM: TIMESTEP
0
ITEM: NUMBER OF ATOMS
256
ITEM: BOX BOUNDS pp pp pp
-1.2652034564434828e-01 1.6126520345644412e+01
-1.2652034564434828e-01 1.6126520345644412e+01
-1.2652034564434828e-01 1.6126520345644412e+01
ITEM: ATOMS id type x y z 
1 1 0.858371 0.981505 0.780932 
2 2 2.81467 2.94745 0.951488 
3 1 2.93691 0.835897 2.8667 
4 2 0.73782 2.81059 2.94803 
5 2 4.9573 0.885806 0.835284 
6 2 7.19426 2.94661 0.872695 
7 1 7.01841 0.780892 2.8247 
8 2 4.97841 2.80144 2.98062 
9 2 8.98375 1.00034 0.919197 
10 1 11.0089 2.95384 0.890282 
11 1 11.1467 0.687496 2.79988 
12 1 9.14091 2.89665 2.87938 
13 2 13.0464 0.961601 0.718168 
14 1 15.036 2.87837 0.909849 
15 1 15.1307 0.800018 2.92279 
16 2 13.1508 2.90508 2.83505 
17 1 0.602151 4.9759 0.862511 
18 2 2.83744 6.89291 0.758902 
19 1 2.8161 4.85622 2.7848 
20 2 0.728975 6.93345 2.71395 
21 1 4.94589 4.83569 0.813261 
22 1 6.9895 6.86413 0.909716 
23 1 6.92976 4.86898 2.91022 
24 2 4.99151 6.79508 2.93169 
25 1 9.17172 4.97747 1.00054 
26 1 11.1242 6.93037 0.917481 
27 1 10.9736 5.06524 3.03502 
28 1 9.05383 7.00585 2.97061 
29 1 13.0024 5.05008 0.766817 
30 1 15.0299 6.98795 0.873992 
31 1 14.9656 5.07083 2.77377 
32 1 13.0536 6.9871 2.9138 
33 2 0.74894 9.17199 0.894943 
34 1 2.92422 11.0454 0.851277 
35 2 2.99652 9.05182 3.06554 
36 1 0.790394 10.9465 3.08553 
37 2 5.0066 9.06272 0.900638 
38 2 6.96799 11.0008 0.877941 
39 1 7.19391 8.89323 2.79527 
40 1 4.95004 11.166 2.96583 
41 1 9.17023 8.90912 0.928714 
42 1 11.1918 11.3056 0.781708 
43 1 11.1305 9.03048 2.86927 
44 2 9.22403 11.0379 2.8266 
45 1 12.9562 9.05844 0.860032 
46 1 15.013 10.9701 0.885056 
47 1 14.9628 9.09346 2.89411 
48 1 13.0104 11.0432 2.85205 
49 1 0.826734 12.9441 0.9478 
50 1 2.87083 15.1847 0.683929 
51 2 2.781 13.0649 2.97825 
52 2 0.94576 15.0887 2.76079 
53 1 4.97023 13.0182 0.907808 
54 2 6.94337 14.8777 0.824017 
55 2 7.03936 13.1877 3.04888 
56 1 4.90546 15.003 2.75054 
57 1 9.09904 13.091 0.936477 
58 2 11.2633 14.962 0.767602 
59 2 11.1683 13.0957 2.89335 
60 1 8.96225 15.1811 2.78007 
61 1 13.2778 13.1582 0.776492 
62 1 15.2123 14.9302 0.687094 
63 2 15.1246 13.0558 2.95354 
64 1 13.1701 14.9172 2.859 
65 1 0.785319 0.753134 5.09142 
66 1 2.76101 2.87032 4.79747 
67 2 2.88266 0.838759 6.93559 
68 2 0.909978 2.86021 7.03035 
69 1 4.93677 0.689357 4.76972 
70 1 7.11106 3.07962 4.863 
71 1 6.9321 0.750436 6.91398 
72 2 5.12686 2.74525 7.02014 
73 1 8.99905 0.98456 4.8273 
74 1 11.08 2.81884 4.75601 
75 2 10.8456 0.789666 7.02981 
76 2 9.10503 2.81865 6.83157 
77 2 12.9886 0.752435 5.0509 
78 2 15.0188 2.76197 5.08234 
79 1 15.1505 0.709362 6.94723 
80 1 13.0232 2.94728 7.10476 
81 2 0.762422 4.91418 5.08474 
82 2 2.91999 6.77124 5.12476 
83 1 2.90929 4.85616 7.09805 
84 1 0.914197 6.92333 7.07249 
85 1 4.78899 4.81924 5.04879 
86 1 7.07953 7.02607 4.97506 
87 2 7.22372 5.02891 6.9724 
88 1 5.08003 6.80899 7.04263 
89 1 9.1793 4.80355 4.90227 
90 1 11.0295 7.1658 4.95066 
91 1 10.8989 4.93492 7.02745 
92 1 9.05485 7.01629 7.05909 
93 2 13.0567 4.99644 5.04193 
94 1 15.0448 7.03747 5.01815 
95 1 15.005 4.92479 7.09836 
96 2 12.841 7.00208 7.00916 
97 2 0.690885 8.93373 5.0793 
98 2 2.72737 11.0789 5.00507 
99 2 2.826 8.99635 6.90895 
100 1 0.69875 11.1595 6.90585 
101 1 5.12261 8.82196 5.05554 
102 2 7.17295 10.9553 5.08942 
103 1 7.03291 8.99642 7.0402 
104 2 5.09869 10.9686 7.01938 
105 1 9.06974 9.07168 4.95161 
106 1 10.9968 10.9854 4.96839 
107 1 11.0347 9.13241 6.95124 
108 1 9.03982 11.0926 7.10729 
109 1 13.0009 9.08545 4.96503 
110 1 14.9622 11.0149 5.0096 
111 1 15.0511 9.20119 6.99087 
112 2 12.9358 11.1118 7.06631 
113 1 0.828201 13.0813 5.02569 
114 2 2.87345 15.1261 4.96276 
115 1 2.99804 13.2148 7.12672 
116 1 0.88826 15.0675 7.01749 
117 2 4.96418 13.1149 4.85509 
118 2 7.10194 15.1167 4.82701 
119 2 7.02295 13.0346 7.27325 
120 2 4.9711 15.0382 7.0745 
121 1 9.16609 13.1028 5.01005 
122 1 10.9219 15.2488 4.79336 
123 1 10.9057 13.0718 6.98888 
124 1 8.94073 15.0075 6.96655 
125 1 13.0952 13.0644 4.99936 
126 1 15.1375 15.0747 4.96083 
127 1 15.1232 13.17 6.94056 
128 1 12.9561 14.9086 6.88888 
129 1 0.989977 0.70229 9.10497 
130 1 3.07403 2.7691 8.92294 
131 1 2.95481 0.869376 10.9651 
132 2 1.03031 2.8475 11.0198 
133 2 4.97047 0.778655 9.0984 
134 1 6.93869 2.93999 9.11622 
135 1 7.21994 0.864573 11.1776 
136 2 4.9352 2.85235 11.2294 
137 2 8.99173 0.857602 9.06638 
138 1 11.0106 2.84212 9.12903 
139 1 11.0582 0.870104 11.0697 
140 1 9.10427 2.8648 11.0097 
141 1 12.964 0.919061 8.9119 
142 2 15.1635 2.84427 9.13736 
143 1 15.142 0.917307 10.9954 
144 1 13.1092 2.97159 11.066 
145 2 0.869272 5.03013 9.15589 
146 2 2.88695 6.96356 9.07316 
147 1 2.94555 4.84979 10.9742 
148 1 0.83907 7.24247 11.1286 
149 2 5.08173 4.98967 9.08818 
150 1 7.12444 7.12906 9.06215 
151 1 7.07952 5.00651 10.8903 
152 1 5.04503 6.95064 11.0334 
153 2 9.02103 4.8958 9.09547 
154 1 10.9273 7.08661 9.0757 
155 1 11.189 4.94994 11.2221 
156 1 8.9949 6.92448 11.1589 
157 2 12.9049 4.94151 9.03618 
158 2 15.0142 7.22715 8.96605 
159 1 15.0218 4.96153 10.9396 
160 2 13.0494 7.06476 10.9898 
161 1 0.920604 9.06735 8.90317 
162 1 2.97699 11.1071 9.01528 
163 1 2.92549 9.1119 11.0134 
164 2 0.835226 11.0776 10.904 
165 2 5.00484 9.024 9.11522 
166 1 7.03492 10.9916 9.20753 
167 1 7.17995 8.95667 11.0504 
168 2 4.99429 10.9966 11.1394 
169 1 9.06479 9.00675 9.09095 
170 1 11.061 10.9878 9.08681 
171 1 11.0554 8.97485 11.1646 
172 1 9.19535 11.1298 10.948 
173 1 13.0038 9.19223 9.05628 
174 1 15.0865 11.0692 8.95712 
175 1 15.125 8.915 10.9698 
176 1 13.0768 11.1409 11.1395 
177 2 1.00544 13.1962 8.9812 
178 1 2.87371 15.0853 9.01018 
179 1 3.01639 13.1107 10.9346 
180 1 0.859987 15.1023 11.0551 
181 1 4.95972 13.2113 9.17624 
182 1 7.00851 15.0735 9.26042 
183 2 6.93245 13.0503 11.0603 
184 1 4.84162 15.1177 11.2455 
185 1 9.21397 13.0709 9.08235 
186 1 11.1241 14.9887 8.97375 
187 2 10.9783 13.2441 11.0675 
188 1 8.92301 15.1238 11.0598 
189 1 13.051 13.144 8.96806 
190 2 15.0607 15.0744 8.98235 
191 1 15.1678 13.2545 11.2217 
192 2 13.0641 15.4234 11.0885 
193 2 0.958204 0.923148 13.0474 
194 1 3.00787 3.01155 13.1361 
195 1 2.88274 0.94075 15.1621 
196 1 1.0442 2.95395 15.0258 
197 1 4.8145 0.77026 13.0683 
198 1 7.04349 3.13368 13.0691 
199 2 6.9267 0.896575 14.8313 
200 2 4.94823 2.89235 14.8841 
201 1 9.0754 1.00039 13.121 
202 1 10.9725 3.01025 13.0863 
203 1 10.9709 1.0581 15.127 
204 1 9.07127 2.99431 15.0089 
205 1 13.0179 1.01858 13.2011 
206 2 15.1115 2.90248 13.0662 
207 1 15.1207 0.910061 15.1745 
208 1 12.9555 2.92202 15.1453 
209 2 0.762796 5.14913 12.9068 
210 2 2.95981 7.17084 12.9867 
211 2 2.93968 5.02318 14.9519 
212 2 0.702485 7.0958 15.1104 
213 2 5.04328 5.06558 12.9855 
214 1 6.97004 7.06205 13.05 
215 1 7.1177 4.96837 15.2183 
216 2 5.17662 7.02311 15.0359 
217 1 8.91354 4.92799 13.0508 
218 2 10.9438 6.85471 13.2095 
219 1 10.9805 4.78005 15.2133 
220 1 8.87553 6.92383 15.1633 
221 2 13.0428 4.98579 13.2051 
222 1 14.9333 7.07318 12.998 
223 2 15.0183 4.94204 15.2101 
224 1 13.0454 7.13542 15.042 
225 2 0.783094 9.13311 12.9497 
226 1 2.75723 11.0616 12.8828 
227 1 2.90143 9.02255 14.9685 
228 2 0.935959 11.1561 15.0809 
229 1 4.90772 8.9997 13.0203 
230 2 7.23657 10.7972 13.1326 
231 1 7.16973 8.91899 15.1753 
232 2 4.94774 10.9879 14.9507 
233 1 9.14304 8.88969 13.3314 
234 2 10.9706 11.2457 12.9826 
235 1 11.0585 9.00572 15.144 
236 2 9.12581 11.164 15.2473 
237 1 13.0065 9.25397 13.1432 
238 2 15.056 11.1203 13.0439 
239 1 14.8687 9.16636 15.1908 
240 1 13.066 11.0562 15.0772 
241 1 0.929867 13.0074 13.0774 
242 1 2.92632 15.0451 13.2782 
243 2 2.99419 13.1062 15.2972 
244 1 0.901747 15.1157 15.0859 
245 1 5.01393 13.1372 13.037 
246 1 6.85198 14.9953 13.062 
247 1 6.94311 12.9634 14.9556 
248 1 5.05842 15.1353 15.0877 
249 1 8.92235 13.1773 13.0644 
250 2 11.1414 15.2207 13.1566 
251 1 11.2637 13.0916 14.9513 
252 2 8.97263 14.9918 15.0334 
253 1 13.0931 13.1437 13.1316 
254 1 15.1505 15.1843 12.9997 
255 1 15.1779 13.1078 14.9227 
256 1 13.1507 15.1693 15.0387 
ITEM: TIMESTEP
1000
ITEM: NUMBER OF ATOMS
256
ITEM: BOX BOUNDS pp pp pp
-1.1729125368327997e-01 1.6117291253683291e+01
-1.1729125368327997e-01 1.6117291253683291e+01
-1.1729125368327997e-01 1.6117291253683291e+01
ITEM: ATOMS id type x y z 
1 1 0.923449 0.839406 0.732999 
2 2 2.87538 2.84511 0.941998 
3 1 2.68934 0.805286 2.93121 
4 2 0.862685 2.96478 2.79674 
5 2 4.88506 0.82721 0.906637 
6 2 7.14524 3.06873 0.921909 
7 1 7.08267 0.836029 2.91459 
8 2 4.98084 2.8378 2.929 
9 2 9.02215 1.01496 0.763442 
10 1 10.9391 3.00414 0.683828 
11 1 11.0325 0.76641 2.98932 
12 1 9.14043 2.80401 2.87918 
13 2 13.0121 0.86632 0.895555 
14 1 15.0799 2.86891 0.816585 
15 1 15.076 0.876298 2.77196 
16 2 13.1602 2.90175 2.85496 
17 1 0.958219 4.83927 0.831305 
18 2 2.89961 6.85035 1.10303 
19 1 2.88139 4.89693 3.03448 
20 2 0.741761 6.97962 2.88164 
21 1 5.0495 4.98661 1.18622 
22 1 7.02906 7.05141 0.795951 
23 1 7.16651 4.79775 2.98396 
24 2 5.12641 6.96146 2.99891 
25 1 9.00655 5.12113 1.00928 
26 1 11.0192 7.0823 0.973647 
27 1 10.9646 4.95794 2.87492 
28 1 8.961 6.8778 2.98696 
29 1 13.0668 5.02365 0.864656 
30 1 15.0394 6.91772 0.966923 
31 1 15.2048 5.14047 2.89786 
32 1 12.9781 6.96826 2.93401 
33 2 0.687706 9.18827 1.08806 
34 1 3.06299 11.0765 0.701192 
35 2 2.89795 9.21972 2.8143 
36 1 0.742496 11.2479 2.90032 
37 2 4.98962 9.04217 0.755145 
38 2 7.15363 10.923 0.903405 
39 1 7.02595 9.00201 2.99513 
40 1 5.10332 10.9678 2.99662 
41 1 9.03048 8.89722 0.91057 
42 1 11.2248 10.9761 0.73612 
43 1 11.1192 8.887 2.91965 
44 2 9.20862 10.8779 2.8821 
45 1 13.2362 8.97071 0.904732 
46 1 14.9107 11.1922 0.805144 
47 1 15.0775 9.01164 3.03844 
48 1 13.0297 10.9006 2.88095 
49 1 0.927717 13.2115 0.741764 
50 1 3.04009 15.0881 0.582032 
51 2 2.94549 13.1554 2.64248 
52 2 0.81667 14.9935 2.899 
53 1 4.93461 13.0691 0.74099 
54 2 7.04423 15.0414 1.01997 
55 2 7.19572 12.9841 2.76028 
56 1 5.04919 14.9761 2.80371 
57 1 9.13229 12.9394 0.770816 
58 2 11.0791 15.0754 0.967415 
59 2 11.2061 13.0277 2.97886 
60 1 9.04294 15.2104 3.00975 
61 1 13.1122 13.1855 0.908642 
62 1 15.032 15.1459 0.657669 
63 2 14.9971 13.0844 2.96208 
64 1 13.006 15.0989 3.00534 
65 1 0.659397 0.809385 4.7716 
66 1 2.91236 2.78611 4.89492 
67 2 2.72769 0.748856 6.82556 
68 2 0.869129 2.88734 7.00654 
69 1 5.0782 0.848424 4.96344 
70 1 7.02182 2.9032 4.81018 
71 1 6.93758 0.743304 6.91518 
72 2 4.93564 2.822 6.89208 
73 1 8.98363 0.967275 4.85255 
74 1 11.0391 2.75848 4.8759 
75 2 11.0222 0.920096 6.94657 
76 2 9.08424 2.85088 6.87924 
77 2 13.2847 0.956154 5.0136 
78 2 15.159 3.08699 4.99284 
79 1 15.197 0.722043 6.86687 
80 1 13.0174 2.78107 7.07365 
81 2 0.836313 5.00403 5.0541 
82 2 2.80894 6.96287 5.23413 
83 1 2.9035 4.84175 6.97443 
84 1 0.828074 7.08525 7.11028 
85 1 5.07564 4.86893 4.89129 
86 1 7.18268 6.79753 4.96602 
87 2 7.053 4.91713 6.90071 
88 1 5.08882 6.94266 6.91683 
89 1 9.03393 4.67447 5.00225 
90 1 10.79 7.02645 4.993 
91 1 10.9743 4.9119 7.01965 
92 1 9.17565 6.88028 6.9951 
93 2 12.9332 4.94912 4.92487 
94 1 14.908 7.03001 5.05167 
95 1 15.0433 5.09431 7.02394 
96 2 12.8578 6.94596 7.01701 
97 2 0.651051 9.07719 5.01909 
98 2 2.96312 10.9896 4.99321 
99 2 2.77234 9.17306 7.1033 
100 1 0.844384 11.0471 6.95655 
101 1 5.00958 8.90535 5.03802 
102 2 7.14273 10.9846 5.04379 
103 1 7.17916 8.907 7.03859 
104 2 4.9273 11.0263 7.17623 
105 1 9.02454 8.93239 5.05164 
106 1 10.9729 11.0466 5.09666 
107 1 11.004 9.13563 7.04259 
108 1 9.06428 10.9524 7.14531 
109 1 12.8335 9.03294 5.00133 
110 1 15.0368 11.1203 5.0857 
111 1 14.8674 9.14192 7.09334 
112 2 12.9936 11.1968 7.06211 
113 1 0.923595 12.9478 5.09285 
114 2 2.94662 15.0217 4.89927 
115 1 2.86293 13.0057 7.05839 
116 1 1.0441 14.9908 6.9397 
117 2 4.9387 12.9211 4.90837 
118 2 7.0846 14.9081 4.8256 
119 1 7.08 13.0977 7.0502 
120 2 4.81751 15.1692 7.03955 
121 1 9.17908 13.1725 5.03463 
122 1 11.0982 15.2631 4.89362 
123 1 10.969 13.2056 7.03686 
124 1 9.09685 15.2078 7.01041 
125 1 12.9516 13.1015 5.03401 
126 1 14.9838 14.9755 5.04184 
127 1 15.1539 13.0304 6.94883 
128 1 12.9648 15.0356 6.88769 
129 1 0.939686 0.829965 9.01144 
130 1 2.97249 2.82231 8.81686 
131 1 3.10371 0.744787 11.0553 
132 2 1.01887 2.93721 10.8818 
133 2 5.22811 0.764836 9.11493 
134 1 6.98881 2.84324 9.26025 
135 1 7.23138 0.871981 11.3243 
136 2 4.89303 2.9528 11.0725 
137 2 8.96308 0.833472 9.17231 
138 1 10.9527 2.68534 9.07713 
139 1 11.1051 0.899875 11.2285 
140 1 9.05323 3.07981 11.2553 
141 1 13.0866 0.727003 8.96334 
142 2 15.0033 2.85382 9.07665 
143 2 15.0907 0.483969 10.9309 
144 1 13.2488 2.93095 11.0663 
145 2 0.693897 4.88855 8.99629 
146 2 2.80664 6.95705 9.0449 
147 1 2.94146 4.97166 10.9132 
148 1 0.791467 7.03803 10.987 
149 2 5.10466 4.91076 9.03782 
150 1 7.11648 7.03379 8.96404 
151 1 6.97546 4.91 11.0134 
152 1 5.16563 6.91987 11.1041 
153 2 9.07562 4.85552 9.16529 
154 1 10.8505 7.05294 9.2066 
155 1 11.059 5.03487 11.1201 
156 1 8.92179 7.03977 11.0675 
157 2 12.7855 4.81286 9.00817 
158 2 14.9578 7.00068 9.15355 
159 1 14.9407 4.92245 11.0442 
160 2 12.886 7.19221 10.9519 
161 1 0.821514 8.97881 8.9025 
162 1 3.00491 11.1776 9.15455 
163 1 3.01705 8.97942 10.9308 
164 2 0.940493 11.0957 11.0683 
165 2 5.05801 8.96642 9.00686 
166 1 7.0333 11.199 8.94813 
167 1 6.98058 8.95577 10.9428 
168 2 5.01491 11.02 11.0382 
169 1 9.06261 9.00584 9.08555 
170 1 10.8785 11.0795 9.20908 
171 1 10.9619 9.13622 11.0851 
172 1 9.01656 11.0862 11.0066 
173 1 13.1584 9.21011 9.07464 
174 1 15.1717 11.1194 9.05592 
175 1 14.9621 9.20674 11.0372 
176 1 13.0361 11.1352 10.9246 
177 2 0.884804 13.1542 9.01095 
178 1 2.97596 15.1009 9.14227 
179 1 3.02576 13.2367 11.005 
180 1 0.993355 15.0772 11.085 
181 1 5.1651 13.0228 9.05956 
182 1 7.0073 14.9619 8.99755 
183 2 7.10844 13.1258 11.0286 
184 1 5.15904 15.2179 11.1089 
185 1 8.93328 13.1352 9.01818 
186 1 11.0293 15.117 8.96588 
187 2 10.9331 13.077 11.1249 
188 1 9.01395 15.1731 11.1401 
189 1 13.1243 13.0921 8.94795 
190 2 15.057 15.0458 8.85211 
191 1 15.0879 13.0878 11.1558 
192 2 12.9452 15.1151 10.9754 
193 2 0.962719 0.892514 12.907 
194 1 2.88385 2.82491 13.0136 
195 1 2.88137 0.884107 14.9374 
196 1 0.916016 2.81684 15.0671 
197 1 4.80754 0.935133 13.1092 
198 1 6.91721 2.99073 13.2206 
199 2 6.99957 0.914932 14.9324 
200 2 4.92593 2.93214 15.1348 
201 1 9.07896 1.02339 13.0852 
202 1 11.0897 2.94179 13.186 
203 1 11.061 0.950698 15.1123 
204 1 9.08144 3.07941 14.9235 
205 1 13.0653 1.02474 13.1547 
206 2 15.1185 2.95596 13.1739 
207 1 15.1442 0.755959 14.9774 
208 1 13.038 2.8985 15.1322 
209 2 0.971243 4.98245 12.8962 
210 2 2.94149 7.09935 12.9245 
211 2 2.88781 4.86109 15.1496 
212 2 0.691247 7.08369 15.3127 
213 2 4.86618 4.99813 13.0837 
214 1 6.96201 7.01474 13.2311 
215 1 7.05307 5.0694 15.144 
216 2 4.89025 7.00822 15.1673 
217 1 8.9427 5.14791 13.1031 
218 2 10.9535 7.18968 13.0754 
219 1 11.0162 5.05747 15.0902 
220 1 9.13276 7.08131 15.181 
221 2 12.9769 5.115 13.1538 
222 1 15.0287 7.13724 13.1318 
223 2 15.0126 4.94589 15.0475 
224 1 13.1194 7.13826 15.1804 
225 2 0.896428 8.98867 12.9287 
226 1 3.01047 10.963 13.0203 
227 1 2.77703 8.97993 15.1818 
228 2 0.868837 11.1797 15.1154 
229 1 5.04117 9.04769 13.0197 
230 2 7.0635 11.0354 12.9699 
231 1 6.96036 8.92464 14.923 
232 2 5.04672 11.1195 15.1635 
233 1 9.01365 9.1584 13.033 
234 2 11.1238 11.074 13.0071 
235 1 11.0788 9.01898 15.1949 
236 2 9.04181 10.9958 15.0616 
237 1 13.0537 9.09952 12.9621 
238 2 14.984 11.2104 13.0953 
239 1 14.9669 9.02107 15.1298 
240 1 13.0435 11.0708 15.0215 
241 1 1.08319 13.238 13.0618 
242 1 3.16341 15.0208 12.9807 
243 1 2.81687 13.0844 14.9402 
244 1 0.968021 15.0713 15.0349 
245 1 4.98895 13.1276 13.0229 
246 1 7.07037 15.1396 12.9864 
247 1 7.00655 13.1708 15.0588 
248 1 4.98151 15.0071 14.9958 
249 1 9.04094 13.1016 13.187 
250 2 10.9599 15.2534 13.1285 
251 1 10.986 13.043 15.1409 
252 2 8.95562 15.088 15.0661 
253 1 12.852 13.2371 13.2015 
254 1 15.1235 15.0493 13.0466 
255 1 15.1283 13.1354 15.183 
256 1 13.1183 15.2105 14.9848 
ITEM: TIMESTEP
2000
ITEM: NUMBER OF ATOMS
256
ITEM: BOX BOUNDS pp pp pp
-1.3683452113504732e-01 1.6136834521135075e+01
-1.3683452113504732e-01 1.6136834521135075e+01
-1.3683452113504732e-01 1.6136834521135075e+01
ITEM: ATOMS id type x y z 
1 1 0.75717 0.799676 0.916468 
2 2 2.77261 2.7979 0.774871 
3 1 3.0567 0.588682 2.94972 
4 2 0.809447 2.79371 2.89156 
5 2 4.97009 0.967278 1.04334 
6 2 7.04719 3.10761 0.835251 
7 1 7.06693 1.03082 2.85739 
8 2 5.07669 3.06132 3.02785 
9 2 9.17642 0.91731 0.836018 
10 1 11.1426 2.92593 0.805179 
11 1 11.1038 0.913103 2.96661 
12 1 9.0256 2.94564 2.77986 
13 1 12.9169 0.939261 1.00042 
14 1 15.0047 2.84178 0.918377 
15 1 15.0255 0.856533 2.81857 
16 2 13.0234 2.9184 2.86045 
17 1 0.54611 4.82557 0.993577 
18 2 2.84086 6.90715 0.915061 
19 1 2.83926 4.91721 2.85916 
20 2 0.732148 6.88486 2.95257 
21 1 4.8918 4.85671 0.951097 
22 1 7.03719 6.77963 0.787509 
23 1 7.16371 5.01618 2.94004 
24 2 5.07334 6.92485 2.93834 
25 1 9.15613 5.03196 0.890167 
26 1 11.0275 7.08335 1.04673 
27 1 10.9518 4.96603 2.85281 
28 1 9.07387 7.01435 2.9077 
29 1 13.1248 4.99323 0.978106 
30 1 14.942 7.03053 0.923002 
31 1 15.0517 4.83134 2.95875 
32 1 13.0843 6.96623 2.93753 
33 2 0.846571 9.01549 0.764302 
34 1 2.94505 10.9803 0.737862 
35 2 2.89452 9.06418 3.00978 
36 1 0.841579 10.8966 2.82204 
37 2 5.12266 8.9054 0.927736 
38 2 7.17818 10.9876 0.852572 
39 1 6.98319 9.06865 2.93655 
40 1 5.00425 11.0191 3.00545 
41 1 8.84859 8.95121 0.938848 
42 2 11.0447 11.0268 0.937578 
43 1 11.052 8.84944 3.05647 
44 2 9.09657 10.8947 2.93979 
45 1 12.9699 8.93633 0.782634 
46 1 15.1219 11.0767 0.835166 
47 1 15.0735 9.02122 2.89835 
48 1 13.1006 10.9043 2.8894 
49 1 0.757748 13.1739 0.802429 
50 1 2.91178 15.0839 0.767273 
51 2 2.75438 12.9761 2.69468 
52 2 0.786338 15.2287 2.71217 
53 1 5.04364 12.873 0.965788 
54 1 7.19646 15.0416 0.780415 
55 2 7.06989 13.0838 2.8948 
56 1 5.02462 15.1121 2.87231 
57 1 8.99232 13.0448 0.919916 
58 1 11.2665 15.3345 0.837623 
59 2 11.1186 13.1678 2.99745 
60 1 9.22334 15.185 2.94098 
61 1 13.092 13.2694 0.819422 
62 1 15.0566 15.1356 0.605559 
63 2 14.9896 12.9272 2.78243 
64 1 13.1999 15.1043 2.90063 
65 1 0.757729 0.814622 4.87765 
66 2 2.94244 2.7162 4.8214 
67 2 2.9722 0.77726 7.00847 
68 2 0.90781 2.56227 6.93105 
69 1 5.09322 0.871988 4.79422 
70 1 7.09681 2.89674 4.94852 
71 1 7.12306 0.780415 7.05082 
72 2 5.22963 2.78416 6.88449 
73 1 9.00489 1.00174 4.76452 
74 1 10.9053 2.88077 4.8395 
75 2 11.0913 0.809604 6.95261 
76 2 9.03715 2.91249 6.83103 
77 2 13.0678 0.734338 4.93666 
78 2 15.009 2.85246 5.06434 
79 1 15.1066 0.727975 6.89996 
80 1 12.9312 2.9624 7.15304 
81 2 0.774237 4.8712 5.17124 
82 2 2.83646 6.80162 5.05883 
83 1 3.12714 4.64743 6.8705 
84 1 0.676173 6.95757 6.86423 
85 1 4.94044 5.0078 5.00278 
86 1 7.00959 7.11522 5.03494 
87 2 6.87325 4.97799 6.97407 
88 1 5.16916 7.08555 6.99306 
89 1 8.89625 5.01628 4.98944 
90 1 10.9286 6.83354 4.97621 
91 1 10.9498 5.00301 6.92041 
92 1 8.89182 6.87116 7.0051 
93 2 13.117 4.95906 5.06289 
94 1 14.9024 6.99038 4.95029 
95 1 15.0236 4.83262 7.12891 
96 2 12.9827 7.02487 6.98845 
97 2 0.655277 9.09663 4.8245 
98 2 2.78088 11.2353 4.96829 
99 2 2.91174 9.00313 6.75294 
100 1 0.846803 11.0335 6.95391 
101 1 4.99116 8.93519 4.97781 
102 2 7.00926 10.9028 5.07808 
103 1 7.12182 8.92718 7.13589 
104 2 4.97678 10.9244 7.01023 
105 1 9.10357 8.77383 5.06198 
106 1 11.2014 11.085 4.89893 
107 1 11.0723 9.09375 7.15616 
108 1 9.14787 10.9972 6.91632 
109 1 12.9971 9.03879 5.03766 
110 1 14.9756 11.2609 5.15844 
111 1 14.9923 9.08848 6.96113 
112 2 12.9613 11.1451 7.01588 
113 1 0.763524 13.1707 4.97505 
114 2 2.84205 15.0237 4.921 
115 1 2.93732 13.0932 7.0423 
116 1 0.831825 15.1342 7.08569 
117 2 4.97839 13.0299 4.79785 
118 2 7.14578 15.2981 4.78996 
119 2 7.15137 12.991 6.93074 
120 2 4.9759 14.9962 7.01789 
121 1 9.17731 13.1084 5.06929 
122 1 10.9319 15.179 4.97408 
123 1 11.0979 13.2111 6.94024 
124 1 9.01032 15.1548 6.89031 
125 1 13.0031 13.0823 5.02318 
126 1 15.1396 14.9189 4.92844 
127 1 14.9717 13.1569 6.99087 
128 1 12.9995 15.0632 6.94602 
129 1 0.866857 0.758975 8.95905 
130 1 3.00888 2.90461 8.92982 
131 1 2.99122 0.686482 11.1798 
132 2 1.10997 2.81275 11.0039 
133 2 5.06825 0.752643 9.00888 
134 1 7.08671 2.95956 9.06126 
135 1 7.06071 0.897744 11.0963 
136 2 4.99114 2.77332 11.0439 
137 2 9.12316 0.804498 9.08356 
138 1 11.0874 2.91558 9.1491 
139 1 11.1388 0.898964 11.0275 
140 1 9.01679 3.12333 11.0238 
141 1 13.0578 1.04611 8.9338 
142 2 15.2581 2.95283 9.105 
143 2 15.1088 0.826685 11.0608 
144 1 13.1095 2.84369 11.1118 
145 2 1.09662 4.87392 9.02771 
146 2 2.93583 7.05006 8.98903 
147 1 2.96055 5.05213 11.0331 
148 1 0.803964 7.04915 10.9995 
149 2 4.95173 4.94953 9.07556 
150 1 7.1313 7.16248 9.0498 
151 1 7.05725 4.83247 11.1194 
152 1 5.06168 7.18381 11.0315 
153 2 9.10498 4.90119 9.04334 
154 1 10.9519 7.03985 9.05451 
155 1 11.0518 4.91698 11.0918 
156 1 8.7978 7.10416 11.1456 
157 2 12.9746 5.04795 9.14281 
158 2 15.2375 7.02226 9.00464 
159 1 15.1383 5.03344 10.9794 
160 2 13.0535 7.18837 10.9988 
161 1 0.919962 8.99349 8.97902 
162 1 3.0353 11.2127 8.81825 
163 1 2.84378 9.01775 11.0704 
164 2 1.08509 11.1571 10.9977 
165 2 4.89369 8.93688 8.95622 
166 1 6.96766 10.9605 9.02472 
167 1 6.99681 9.122 11.1325 
168 2 4.86407 11.0732 10.9899 
169 1 9.00691 9.07539 9.04082 
170 1 11.0249 11.0293 8.95638 
171 1 10.9776 9.08025 11.1139 
172 1 9.04274 11.0677 10.9878 
173 1 13.0623 9.12345 9.05743 
174 1 15.1302 10.974 8.99804 
175 1 15.1393 9.17249 11.1892 
176 1 13.2642 11.0374 10.9896 
177 2 0.997008 13.1288 8.97213 
178 1 2.99924 15.159 9.15608 
179 1 3.11122 13.1698 11.0132 
180 1 0.844023 15.0641 11.0938 
181 1 5.02548 13.0768 9.12122 
182 1 7.10243 15.1083 9.00896 
183 2 7.16214 13.1419 10.9266 
184 1 4.9348 15.173 11.0097 
185 1 9.00585 13.0374 8.91029 
186 1 11.1534 15.1255 8.96902 
187 2 11.0735 13.0091 10.9891 
188 1 9.05028 15.0846 11.0191 
189 1 13.3537 12.9985 9.1385 
190 2 14.9263 15.1283 9.00323 
191 1 15.1672 13.035 11.1369 
192 2 13.0209 14.9806 11.1844 
193 2 0.928037 0.940986 13.0661 
194 1 3.04773 2.8619 12.988 
195 1 2.97302 0.781632 15.1058 
196 1 0.806756 2.79355 15.0612 
197 1 4.82524 0.76253 13.1706 
198 1 6.85977 2.91787 13.089 
199 2 7.04122 0.908119 15.0122 
200 2 4.91798 2.96481 15.099 
201 1 8.98241 1.1241 12.9995 
202 1 10.9914 3.03456 12.9489 
203 1 11.1595 1.09461 15.0722 
204 1 9.17584 3.2322 14.9839 
205 1 13.1118 0.859905 13.0443 
206 2 15.0922 3.04068 12.9251 
207 1 15.0118 0.861025 15.1696 
208 1 13.1002 2.83142 15.2929 
209 2 0.737541 5.02058 12.9058 
210 2 2.96612 6.91724 13.0474 
211 2 2.58466 4.83261 15.1364 
212 2 0.762095 7.08208 15.0229 
213 2 4.86061 4.89745 12.9895 
214 1 6.90857 6.9098 13.2201 
215 1 6.98022 5.00907 14.9969 
216 2 4.87452 7.08386 15.168 
217 1 8.97218 5.00795 13.0794 
218 2 10.8813 7.04452 13.1651 
219 1 11.0843 4.98128 15.1186 
220 1 9.1523 6.98191 15.2637 
221 2 13.0824 5.07089 13.1241 
222 1 15.0393 7.13443 13.163 
223 2 15.0227 4.97388 15.0972 
224 1 12.9274 7.10152 15.2507 
225 2 0.892422 9.02713 12.9136 
226 1 2.98469 11.052 13.0088 
227 1 2.83299 9.13935 15.1113 
228 2 0.771087 11.2585 14.9944 
229 1 4.80832 8.92925 12.9504 
230 2 7.09162 11.0086 13.1644 
231 1 7.008 8.86024 15.2042 
232 2 5.02047 11.0952 15.1398 
233 1 8.94323 8.88834 13.1393 
234 2 11.0437 11.1319 13.2618 
235 1 10.899 8.91885 15.257 
236 2 9.01669 10.9669 15.1586 
237 1 12.9577 9.15273 13.1028 
238 2 15.2137 11.1456 13.0635 
239 1 14.9689 9.24311 15.0477 
240 1 13.0185 11.1809 15.2515 
241 1 0.891364 13.1838 13.1181 
242 1 2.92021 15.0902 13.1257 
243 1 2.85193 13.1937 14.9962 
244 1 0.843351 15.1452 15.0667 
245 1 5.09235 13.3138 13.1045 
246 2 7.02649 15.1254 13.0744 
247 1 6.97759 13.1769 15.199 
248 1 4.95255 15.1326 15.2334 
249 1 9.04855 12.9996 13.0832 
250 2 10.9766 15.2281 13.1671 
251 1 10.9673 13.0566 15.3491 
252 2 9.22982 15.0069 15.1087 
253 1 13.0312 13.0451 13.1911 
254 1 15.0989 15.187 13.194 
255 1 14.9574 13.0318 15.1196 
256 1 13.0388 15.2424 15.1159 
ITEM: TIMESTEP
3000
ITEM: NUMBER OF ATOMS
256
ITEM: BOX BOUNDS pp pp pp
-1.2156934107252630e-01 1.6121569341072561e+01
-1.2156934107252630e-01 1.6121569341072561e+01
-1.2156934107252630e-01 1.6121569341072561e+01
ITEM: ATOMS id type x y z 
1 1 0.807771 0.78321 0.696758 
2 2 2.86177 2.8926 0.884609 
3 1 3.03656 0.778121 2.74051 
4 2 0.794291 2.75078 2.90708 
5 2 4.98085 0.73806 0.805339 
6 2 6.98287 2.95414 0.881654 
7 1 7.10941 0.910353 2.94568 
8 2 5.1241 2.99037 2.94992 
9 2 9.18133 0.905712 0.968468 
10 1 11.0133 3.00868 0.840231 
11 1 11.1269 0.955192 3.08678 
12 1 9.26356 2.95103 3.14329 
13 1 12.8528 0.976171 0.756713 
14 1 15.024 2.82021 0.927877 
15 1 14.8601 0.829648 2.84509 
16 2 12.9492 2.98732 2.83099 
17 1 0.764892 4.77758 0.984778 
18 2 2.85667 6.94729 0.828625 
19 1 2.9003 4.77744 2.94768 
20 2 0.52653 6.91821 2.89654 
21 1 5.02902 4.88113 0.832624 
22 1 7.03291 6.90771 0.851272 
23 1 7.07503 4.94915 3.16563 
24 2 4.91718 6.67462 2.80243 
25 1 8.90721 4.9858 1.02446 
26 1 10.9958 7.09185 1.09788 
27 1 11.1542 5.0096 2.74105 
28 1 9.18139 6.97674 3.10795 
29 1 13.0042 5.02089 0.984195 
30 1 14.9183 6.9316 0.928594 
31 1 14.8888 4.90536 3.01644 
32 1 12.9753 6.88877 2.98011 
33 2 0.842961 9.13781 1.01957 
34 1 2.94575 11.177 0.911512 
35 2 2.83765 8.90926 2.89149 
36 1 0.886899 11.0721 2.93594 
37 2 4.9187 8.96772 0.977292 
38 2 6.88711 11.064 0.875717 
39 1 6.99342 8.86126 2.87612 
40 1 4.97565 11.0039 3.03954 
41 1 8.95401 8.83111 0.912438 
42 2 11.1156 11.0002 0.891158 
43 1 11.1121 9.02111 2.93135 
44 2 9.02472 10.9556 2.76679 
45 1 13.0775 8.94357 1.01944 
46 1 15.0019 11.1137 0.956682 
47 1 15.0087 9.04731 2.95874 
48 1 12.8981 11.0392 3.07043 
49 1 0.851147 13.0129 0.846082 
50 1 2.89181 15.0613 0.801655 
51 2 2.91856 13.0003 2.90298 
52 2 0.820833 15.1625 2.60921 
53 1 4.96958 13.1402 0.818658 
54 1 7.1324 15.1579 0.943517 
55 2 6.91554 12.9897 2.79875 
56 1 5.04948 15.1766 2.91963 
57 1 9.06641 13.1069 0.9 
58 1 11.4116 15.1605 0.752279 
59 2 11.0158 13.0839 2.99726 
60 1 9.22304 15.1087 3.10169 
61 1 13.2549 13.0649 0.602017 
62 1 14.8887 15.3362 0.864824 
63 2 15.1145 13.1238 2.90861 
64 1 13.1224 15.0362 2.90087 
65 1 0.868902 0.72539 4.85331 
66 2 2.97139 2.85984 4.85101 
67 2 3.00749 0.873928 6.97808 
68 2 0.97104 2.76011 6.87928 
69 1 5.16849 0.909135 4.89211 
70 1 7.19806 2.9981 4.90751 
71 1 7.12102 0.764863 7.01319 
72 2 5.04194 2.79413 7.04708 
73 1 9.10565 0.887075 4.93974 
74 1 11.0659 3.1701 4.95151 
75 2 11.0202 0.87762 7.0532 
76 2 9.03972 2.9852 6.96585 
77 2 13.0265 0.804137 4.94701 
78 2 14.9109 2.87076 4.95712 
79 1 15.1392 0.879547 7.03264 
80 1 13.0693 2.72703 6.9998 
81 2 0.640809 4.8274 5.03789 
82 2 2.71168 6.86214 4.97409 
83 1 2.99845 4.92005 6.92896 
84 1 0.913099 6.83533 7.09702 
85 1 4.93349 4.85338 4.98022 
86 1 6.83336 7.11918 5.01631 
87 2 6.951 5.12364 7.06679 
88 1 4.83511 6.89576 7.0992 
89 1 9.05034 5.07577 5.10366 
90 1 11.1722 7.21613 5.10726 
91 1 11.0382 5.26188 6.87349 
92 1 8.87776 7.20092 6.96613 
93 2 13.0988 5.08542 5.0591 
94 1 14.9663 7.02953 4.8588 
95 1 15.0764 5.1525 7.01053 
96 2 13.1967 7.12781 7.11274 
97 2 0.763222 9.15156 4.91303 
98 2 3.00551 11.0506 5.01645 
99 2 2.65959 8.94696 7.09885 
100 1 0.812849 11.2066 6.88471 
101 1 4.89116 8.733 4.82354 
102 2 6.83346 10.8779 4.99877 
103 1 6.91714 8.97408 7.19479 
104 2 4.93659 11.1405 7.15366 
105 1 8.88366 8.91742 4.81025 
106 1 11.1404 10.932 4.90263 
107 1 11.0087 9.11519 7.01225 
108 1 9.10164 10.9171 6.77904 
109 1 13.0746 9.06754 5.09498 
110 1 14.8818 10.9611 4.96429 
111 1 15.242 9.22344 7.09353 
112 2 13.1273 11.087 6.89232 
113 1 0.962394 13.1939 5.00908 
114 2 2.98157 15.2745 4.93513 
115 1 3.01728 13.1412 7.0336 
116 1 0.869031 15.0915 6.90985 
117 2 4.8959 13.1007 4.86907 
118 2 7.1817 15.0453 4.86709 
119 2 7.06799 13.0417 6.96659 
120 2 5.15859 15.0738 6.91806 
121 1 9.12591 12.9037 5.0423 
122 1 10.9294 15.0602 5.07937 
123 1 11.0623 13.0339 7.05607 
124 1 9.04073 15.0771 7.11534 
125 1 13.0168 13.0835 4.98723 
126 1 15.1003 15.0155 4.85793 
127 1 14.9923 13.1658 6.8392 
128 1 12.9713 15.0151 7.10009 
129 1 0.922458 0.900477 8.83336 
130 1 2.98595 2.80913 8.94741 
131 1 3.0815 0.518174 10.738 
132 2 1.00067 2.88022 11.0946 
133 2 5.12566 0.768188 9.01483 
134 1 7.01628 2.99119 9.13743 
135 1 6.94437 0.860638 11.1107 
136 2 5.06059 2.64408 11.2702 
137 2 8.99923 1.13998 9.14875 
138 1 11.1203 2.91068 9.07541 
139 1 11.0359 1.10771 11.1836 
140 1 9.06736 3.08444 11.0223 
141 1 13.0641 0.859187 8.98451 
142 2 15.1381 2.86531 8.82422 
143 2 15.1169 0.826414 11.0295 
144 1 12.999 2.93561 11.0243 
145 2 1.01655 4.80516 8.86106 
146 2 2.81099 6.9896 9.32818 
147 1 3.04984 4.84555 11.3486 
148 1 0.848448 7.02331 11.2171 
149 2 5.00232 4.96823 9.25077 
150 1 6.89068 6.96462 9.04681 
151 1 7.17755 5.04215 11.1439 
152 1 4.97511 7.14788 11.1254 
153 2 9.02389 5.09839 8.8692 
154 1 11.0464 7.08193 9.04032 
155 1 10.9696 4.92912 10.9581 
156 1 8.97291 7.06359 10.9655 
157 2 13.007 4.96401 8.87165 
158 2 15.2021 6.85446 9.14541 
159 1 14.9964 4.8912 10.9799 
160 2 13.1493 6.97142 11.0327 
161 1 0.869251 9.14059 9.03558 
162 1 2.84408 11.094 8.99858 
163 1 2.88641 9.19356 11.0384 
164 2 0.919207 11.1224 10.98 
165 2 4.94976 8.98218 9.18806 
166 1 7.07792 10.8383 9.09888 
167 1 7.07972 9.08438 11.0424 
168 2 4.91319 11.1051 11.0437 
169 1 9.0729 8.97959 9.09924 
170 1 11.0469 10.8912 9.00212 
171 1 11.2335 9.04996 10.8943 
172 1 9.23686 10.937 10.9873 
173 1 13.2124 9.17327 9.10885 
174 1 15.2893 11.1004 8.99076 
175 1 15.2082 9.084 11.0609 
176 1 12.9902 11.1027 10.9148 
177 2 0.990171 13.283 8.97401 
178 1 2.9272 15.1246 8.76238 
179 1 2.96542 13.1375 11.0627 
180 1 0.927502 15.0331 11.0528 
181 1 4.89899 13.1532 9.06556 
182 1 7.21555 15.2463 9.03929 
183 2 7.28588 13.179 10.8772 