LAMMPS (22 Aug 2018)
Processor partition = 0
OMP_NUM_THREADS environment is not set. Defaulting to 1 thread. (../comm.cpp:87)
  using 1 OpenMP thread(s) per MPI task
# Demonstrating temper/swap

variable        tt equal 400.0      # target temperature
variable        pp equal 0.0      # target pressure
variable        chempot equal 0     # unused gcmc argument

variable        nlat equal 4        # supercell size
variable        natoms equal 4*${nlat}^3 # 4 FCC atoms per unit cell
variable        natoms equal 4*4^3 
variable        nd equal 1               # interval for fix gcmc
variable        nv equal 1               # interval for fix mc/box

variable        dmove equal 0.10         # size of max MC displacement
variable        vmove equal 0.05         # size of max MC volume change



units           metal
atom_style      atomic
pair_style      eam/alloy

#atom_modify     map array
#atom_modify     sort 0 0.0

boundary        p p p


variable        lat equal 4.0
variable        xx equal ${nlat}*${lat}
variable        xx equal 4*${lat}
variable        xx equal 4*4
variable        yy equal ${nlat}*${lat}
variable        yy equal 4*${lat}
variable        yy equal 4*4
variable        zz equal ${nlat}*${lat}
variable        zz equal 4*${lat}
variable        zz equal 4*4

region          box1   block 0 ${xx} 0 ${yy} 0 ${zz}
region          box1   block 0 16 0 ${yy} 0 ${zz}
region          box1   block 0 16 0 16 0 ${zz}
region          box1   block 0 16 0 16 0 16
#region 		box1   prism 0 ${xx} 0 ${yy} 0 ${zz} 0 0 0

lattice         fcc ${lat} origin 0.25 0.25 0.25
lattice         fcc 4 origin 0.25 0.25 0.25
Lattice spacing in x,y,z = 4 4 4
create_box      2  box1
Created orthogonal box = (0 0 0) to (16 16 16)
  1 by 1 by 1 MPI processor grid
create_atoms    1  box
Created 256 atoms
  Time spent = 0.000587463 secs

set             type 1 type/fraction 2 0.40 12345 ### for nlat = 2
  89 settings made for type/fraction


pair_style      eam/alloy
pair_coeff      * *   PtAu.eam.alloy Pt Au


variable        temper_T world ${tt} ${tt}
variable        temper_T world 400 ${tt}
variable        temper_T world 400 400
variable 	rep world 0 1
variable        each equal 100
variable	dach equal v_each*10
variable        ncycles equal 2000

# atom counts


variable        Pt atom "type==1"
variable        Au atom "type==2"

group           Pt dynamic all var Pt
dynamic group Pt defined
group           Au dynamic all var Au
dynamic group Au defined

variable        cPt equal count(Pt)
variable        cAu equal count(Au)


variable        tt     equal 2.0*${temper_T}
variable        tt     equal 2.0*400
velocity        all create ${tt} 12345 mom yes rot yes dist gaussian
velocity        all create 800 12345 mom yes rot yes dist gaussian



fix             myfix all npt temp ${temper_T} ${temper_T} 1.0 iso ${pp} ${pp} 1.0
fix             myfix all npt temp 400 ${temper_T} 1.0 iso ${pp} ${pp} 1.0
fix             myfix all npt temp 400 400 1.0 iso ${pp} ${pp} 1.0
fix             myfix all npt temp 400 400 1.0 iso 0 ${pp} 1.0
fix             myfix all npt temp 400 400 1.0 iso 0 0 1.0
run             10000
Neighbor list info ...
  update every 1 steps, delay 10 steps, check yes
  max neighbors/atom: 2000, page size: 100000
  master list distance cutoff = 7.75
  ghost atom cutoff = 7.75
  binsize = 3.875, bins = 5 5 5
  1 neighbor lists, perpetual/occasional/extra = 1 0 0
  (1) pair eam/alloy, perpetual
      attributes: half, newton on
      pair build: half/bin/atomonly/newton
      stencil: half/bin/3d/newton
      bin: standard
Per MPI rank memory allocation (min/avg/max) = 3.38 | 3.38 | 3.38 Mbytes
Step Temp E_pair E_mol TotEng Press Volume 
       0          800   -1167.9735            0   -1141.6044    62211.214         4096 
   10000    391.71517   -1161.1561            0   -1148.2446     -1403.26    4293.4249 
Loop time of 4.90743 on 1 procs for 10000 steps with 256 atoms

Performance: 176.060 ns/day, 0.136 hours/ns, 2037.727 timesteps/s
100.0% CPU use with 1 MPI tasks x 1 OpenMP threads

MPI task timing breakdown:
Section |  min time  |  avg time  |  max time  |%varavg| %total
---------------------------------------------------------------
Pair    | 4.4489     | 4.4489     | 4.4489     |   0.0 | 90.66
Neigh   | 0          | 0          | 0          |   0.0 |  0.00
Comm    | 0.07594    | 0.07594    | 0.07594    |   0.0 |  1.55
Output  | 5.4836e-05 | 5.4836e-05 | 5.4836e-05 |   0.0 |  0.00
Modify  | 0.33438    | 0.33438    | 0.33438    |   0.0 |  6.81
Other   |            | 0.04814    |            |       |  0.98

Nlocal:    256 ave 256 max 256 min
Histogram: 1 0 0 0 0 0 0 0 0 0
Nghost:    1792 ave 1792 max 1792 min
Histogram: 1 0 0 0 0 0 0 0 0 0
Neighs:    17152 ave 17152 max 17152 min
Histogram: 1 0 0 0 0 0 0 0 0 0

Total # of neighbors = 17152
Ave neighs/atom = 67
Neighbor list builds = 0
Dangerous builds = 0
unfix           myfix


thermo_style    custom step temp epair vol etotal press density v_cPt v_cAu
thermo          ${each}
thermo          100


reset_timestep 0    ### reset to get counter on swaps correct


fix             myfix all npt temp ${temper_T} ${temper_T} 1.0 iso ${pp} ${pp} 2.0 tchain 5 pchain 5
fix             myfix all npt temp 400 ${temper_T} 1.0 iso ${pp} ${pp} 2.0 tchain 5 pchain 5
fix             myfix all npt temp 400 400 1.0 iso ${pp} ${pp} 2.0 tchain 5 pchain 5
fix             myfix all npt temp 400 400 1.0 iso 0 ${pp} 2.0 tchain 5 pchain 5
fix             myfix all npt temp 400 400 1.0 iso 0 0 2.0 tchain 5 pchain 5
#fix             myfix all nvt temp ${temper_T} ${temper_T} 1.0 tchain 5
#fix             myfix all nve
#fix             myfix1 all langevin ${tt} ${tt} 1.0 699483


dump            1 all custom ${dach} dump.${rep} id type x y z
dump            1 all custom 1000 dump.${rep} id type x y z
dump            1 all custom 1000 dump.0 id type x y z

gibbs/multireplica 10000000  ${each}  ${ncycles} ${temper_T} myfix 123 888 types 1 2 fudge 0.0
gibbs/multireplica 10000000  100  ${ncycles} ${temper_T} myfix 123 888 types 1 2 fudge 0.0
gibbs/multireplica 10000000  100  2000 ${temper_T} myfix 123 888 types 1 2 fudge 0.0
gibbs/multireplica 10000000  100  2000 400 myfix 123 888 types 1 2 fudge 0.0
WARNING: Using 'neigh_modify every 1 delay 0 check yes' setting during minimization (../min.cpp:168)
Per MPI rank memory allocation (min/avg/max) = 5.514 | 5.514 | 5.514 Mbytes
Step Temp E_pair Volume TotEng Press Density v_cPt v_cAu 
       0    391.71517   -1161.1561    4293.4249   -1148.2446     -1403.26    19.380725          167           89 
     100    388.01648   -1161.0314    4289.4842   -1148.2419    754.62229    19.398529          167           89 
Per MPI rank memory allocation (min/avg/max) = 5.514 | 5.514 | 5.514 Mbytes
Step Temp E_pair Volume TotEng Press Density v_cPt v_cAu 
     100    388.01648   -1161.0314    4289.4842   -1148.2419    754.62229    19.398529          167           89 
     200    406.81102   -1161.6378     4291.839   -1148.2288   -1784.5414    19.387886          167           89 
Per MPI rank memory allocation (min/avg/max) = 5.514 | 5.514 | 5.514 Mbytes
Step Temp E_pair Volume TotEng Press Density v_cPt v_cAu 
     200    406.81102   -1161.6378     4291.839   -1148.2288   -1784.5414    19.387886          167           89 
     300    384.29912   -1160.8805    4287.3233   -1148.2135    1007.8822    19.408307          167           89 
Per MPI rank memory allocation (min/avg/max) = 5.514 | 5.514 | 5.514 Mbytes
Step Temp E_pair Volume TotEng Press Density v_cPt v_cAu 
     300    384.29912   -1160.8805    4287.3233   -1148.2135    1007.8822    19.408307          167           89 
     400    387.08243   -1160.9506    4289.6722   -1148.1919    478.52234    19.397679          167           89 
Per MPI rank memory allocation (min/avg/max) = 5.514 | 5.514 | 5.514 Mbytes
Step Temp E_pair Volume TotEng Press Density v_cPt v_cAu 
     400    387.08243   -1160.9506    4289.6722   -1148.1919    478.52234    19.397679          167           89 
     500    394.32468   -1161.1548    4293.1307   -1148.1573   -1346.0584    19.382053          167           89 
Per MPI rank memory allocation (min/avg/max) = 5.514 | 5.514 | 5.514 Mbytes
Step Temp E_pair Volume TotEng Press Density v_cPt v_cAu 
     500    394.32468   -1161.1548    4293.1307   -1148.1573   -1346.0584    19.382053          167           89 
     600    392.13206   -1161.0467    4285.8253   -1148.1215    2059.6395     19.41509          167           89 
Per MPI rank memory allocation (min/avg/max) = 5.514 | 5.514 | 5.514 Mbytes
Step Temp E_pair Volume TotEng Press Density v_cPt v_cAu 
     600    392.13206   -1161.0467    4285.8253   -1148.1215    2059.6395     19.41509          167           89 
     700    379.87376   -1160.6038     4287.834   -1148.0826    1635.4736    19.405995          167           89 
Per MPI rank memory allocation (min/avg/max) = 5.514 | 5.514 | 5.514 Mbytes
Step Temp E_pair Volume TotEng Press Density v_cPt v_cAu 
     700    379.87376    -1162.988     4287.834   -1150.4669    581.17185    19.405268          168           88 
     800    399.78469   -1163.5954    4293.9555   -1150.4179   -3001.2397    19.377604          168           88 
Per MPI rank memory allocation (min/avg/max) = 5.514 | 5.514 | 5.514 Mbytes
Step Temp E_pair Volume TotEng Press Density v_cPt v_cAu 
     800    399.78469   -1161.1394    4293.9555    -1147.962   -1849.6655     19.37833          167           89 
     900    408.86151   -1161.3835    4286.7889   -1147.9068   -212.37991    19.410726          167           89 
Per MPI rank memory allocation (min/avg/max) = 5.514 | 5.514 | 5.514 Mbytes
Step Temp E_pair Volume TotEng Press Density v_cPt v_cAu 
     900    408.86151   -1163.7908    4286.7889   -1150.3142   -1596.0415    19.409999          168           88 
    1000    399.00145   -1163.3987    4278.8137    -1150.247    3774.5005    19.446177          168           88 
Per MPI rank memory allocation (min/avg/max) = 5.514 | 5.514 | 5.514 Mbytes
Step Temp E_pair Volume TotEng Press Density v_cPt v_cAu 
    1000    399.00145   -1163.3987    4278.8137    -1150.247    3774.5005    19.446177          168           88 
    1100    396.07461   -1163.2353      4293.21   -1150.1801   -2236.9206    19.380969          168           88 
Per MPI rank memory allocation (min/avg/max) = 5.514 | 5.514 | 5.514 Mbytes
Step Temp E_pair Volume TotEng Press Density v_cPt v_cAu 
    1100    396.07461   -1163.2353      4293.21   -1150.1801   -2236.9206    19.380969          168           88 
    1200    391.36581   -1162.9981    4293.2462   -1150.0982    -1151.346    19.380805          168           88 
Per MPI rank memory allocation (min/avg/max) = 5.514 | 5.514 | 5.514 Mbytes
Step Temp E_pair Volume TotEng Press Density v_cPt v_cAu 
    1200    391.36581   -1162.9711    4293.2462   -1150.0711   -1590.1538    19.380805          168           88 
    1300    404.88685   -1163.3132    4280.3653   -1149.9675    3794.8037    19.439128          168           88 
Per MPI rank memory allocation (min/avg/max) = 5.514 | 5.514 | 5.514 Mbytes
Step Temp E_pair Volume TotEng Press Density v_cPt v_cAu 
    1300    404.88685   -1163.3132    4280.3653   -1149.9675    3794.8037    19.439128          168           88 
    1400    415.75987   -1163.5599    4285.7614   -1149.8559   -1123.6039    19.414653          168           88 
Per MPI rank memory allocation (min/avg/max) = 5.514 | 5.514 | 5.514 Mbytes
Step Temp E_pair Volume TotEng Press Density v_cPt v_cAu 
    1400    415.75987   -1163.5599    4285.7614   -1149.8559   -1123.6039    19.414653          168           88 
    1500    410.33495   -1163.2618     4288.647   -1149.7366   -1555.1768     19.40159          168           88 
Per MPI rank memory allocation (min/avg/max) = 5.514 | 5.514 | 5.514 Mbytes
Step Temp E_pair Volume TotEng Press Density v_cPt v_cAu 
    1500    410.33495   -1160.7573     4288.647   -1147.2321   -262.37685    19.402316          167           89 
    1600    409.39831   -1160.5888    4293.4679   -1147.0944     662.4434     19.38053          167           89 
Per MPI rank memory allocation (min/avg/max) = 5.514 | 5.514 | 5.514 Mbytes
Step Temp E_pair Volume TotEng Press Density v_cPt v_cAu 
    1600    409.39831   -1160.6314    4293.4679   -1147.1371    569.05543     19.38053          167           89 
    1700    391.01857   -1159.8506    4298.0822   -1146.9621   -1773.1256    19.359724          167           89 
Per MPI rank memory allocation (min/avg/max) = 5.514 | 5.514 | 5.514 Mbytes
Step Temp E_pair Volume TotEng Press Density v_cPt v_cAu 
    1700    391.01857   -1159.8506    4298.0822   -1146.9621   -1773.1256    19.359724          167           89 
    1800    403.76777   -1160.0816    4279.1348   -1146.7729    5813.0274    19.445446          167           89 
Per MPI rank memory allocation (min/avg/max) = 5.514 | 5.514 | 5.514 Mbytes
Step Temp E_pair Volume TotEng Press Density v_cPt v_cAu 
    1800    403.76777   -1160.0816    4279.1348   -1146.7729    5813.0274    19.445446          167           89 
    1900    430.12094   -1160.7626    4293.5347   -1146.5852   -1486.0078    19.380229          167           89 
Per MPI rank memory allocation (min/avg/max) = 5.514 | 5.514 | 5.514 Mbytes
Step Temp E_pair Volume TotEng Press Density v_cPt v_cAu 
    1900    430.12094   -1160.7186    4293.5347   -1146.5412   -1213.5607    19.380229          167           89 
    2000    435.61219   -1160.6414    4309.7933    -1146.283   -7385.3913    19.307118          167           89 
Per MPI rank memory allocation (min/avg/max) = 5.514 | 5.514 | 5.514 Mbytes
Step Temp E_pair Volume TotEng Press Density v_cPt v_cAu 
    2000    435.61219   -1160.6414    4309.7933    -1146.283   -7385.3913    19.307118          167           89 
    2100    425.26259   -1160.0688     4280.186   -1146.0516    7122.7064    19.440671          167           89 
Per MPI rank memory allocation (min/avg/max) = 5.514 | 5.514 | 5.514 Mbytes
Step Temp E_pair Volume TotEng Press Density v_cPt v_cAu 
    2100    425.26259   -1160.0688     4280.186   -1146.0516    7122.7064    19.440671          167           89 
    2200    413.36477   -1159.4787    4290.1282   -1145.8536    2358.1308    19.395617          167           89 
Per MPI rank memory allocation (min/avg/max) = 5.514 | 5.514 | 5.514 Mbytes
Step Temp E_pair Volume TotEng Press Density v_cPt v_cAu 
    2200    413.36477   -1159.4787    4290.1282   -1145.8536    2358.1308    19.395617          167           89 
    2300    444.01522    -1160.248    4315.7171   -1145.6126   -9600.9256    19.280616          167           89 
Per MPI rank memory allocation (min/avg/max) = 5.514 | 5.514 | 5.514 Mbytes
Step Temp E_pair Volume TotEng Press Density v_cPt v_cAu 
    2300    444.01522    -1160.248    4315.7171   -1145.6126   -9600.9256    19.280616          167           89 
    2400    409.67475   -1158.9531      4282.04   -1145.4497    9397.5407    19.432253          167           89 
Per MPI rank memory allocation (min/avg/max) = 5.514 | 5.514 | 5.514 Mbytes
Step Temp E_pair Volume TotEng Press Density v_cPt v_cAu 
    2400    409.67475   -1156.4709      4282.04   -1142.9675    10549.449    19.432981          166           90 
    2500    422.40638   -1156.7758    4297.3595   -1142.8527    1123.7024    19.363705          166           90 
Per MPI rank memory allocation (min/avg/max) = 5.514 | 5.514 | 5.514 Mbytes
Step Temp E_pair Volume TotEng Press Density v_cPt v_cAu 
    2500    422.40638   -1156.7758    4297.3595   -1142.8527    1123.7024    19.363705          166           90 
    2600    414.94079   -1156.3877    4315.3426   -1142.7107   -6534.8994    19.283012          166           90 
Per MPI rank memory allocation (min/avg/max) = 5.514 | 5.514 | 5.514 Mbytes
Step Temp E_pair Volume TotEng Press Density v_cPt v_cAu 
    2600    414.94079   -1156.3877    4315.3426   -1142.7107   -6534.8994    19.283012          166           90 
    2700     459.9307    -1157.803    4280.8478   -1142.6431    6357.7058    19.438393          166           90 
Per MPI rank memory allocation (min/avg/max) = 5.514 | 5.514 | 5.514 Mbytes
Step Temp E_pair Volume TotEng Press Density v_cPt v_cAu 
    2700     459.9307    -1157.803    4280.8478   -1142.6431    6357.7058    19.438393          166           90 
    2800    434.72754   -1157.0037    4295.2035   -1142.6745    2790.6557    19.373425          166           90 
Per MPI rank memory allocation (min/avg/max) = 5.514 | 5.514 | 5.514 Mbytes
Step Temp E_pair Volume TotEng Press Density v_cPt v_cAu 
    2800    434.72754   -1157.0037    4295.2035   -1142.6745    2790.6557    19.373425          166           90 
    2900    417.91379   -1156.3485    4328.7102   -1142.5735   -9338.0982    19.223463          166           90 
Per MPI rank memory allocation (min/avg/max) = 5.514 | 5.514 | 5.514 Mbytes
Step Temp E_pair Volume TotEng Press Density v_cPt v_cAu 
    2900    417.91379   -1156.3485    4328.7102   -1142.5735   -9338.0982    19.223463          166           90 
    3000     438.8512   -1157.1593    4285.5825   -1142.6941    5564.1836    19.416918          166           90 
Per MPI rank memory allocation (min/avg/max) = 5.514 | 5.514 | 5.514 Mbytes
Step Temp E_pair Volume TotEng Press Density v_cPt v_cAu 
    3000     438.8512   -1157.1593    4285.5825   -1142.6941    5564.1836    19.416918          166           90 
    3100    470.97247   -1158.2316     4282.824   -1142.7077    5424.5549    19.429424          166           90 
Per MPI rank memory allocation (min/avg/max) = 5.514 | 5.514 | 5.514 Mbytes
Step Temp E_pair Volume TotEng Press Density v_cPt v_cAu 
    3100    470.97247   -1158.2316     4282.824   -1142.7077    5424.5549    19.429424          166           90 
    3200    427.23443   -1156.7813    4327.2234   -1142.6991   -9613.2754    19.230068          166           90 
Per MPI rank memory allocation (min/avg/max) = 5.514 | 5.514 | 5.514 Mbytes
Step Temp E_pair Volume TotEng Press Density v_cPt v_cAu 
    3200    427.23443   -1156.7813    4327.2234   -1142.6991   -9613.2754    19.230068          166           90 
    3300     462.6716   -1158.1268    4299.0457   -1142.8765   -854.03098     19.35611          166           90 
Per MPI rank memory allocation (min/avg/max) = 5.514 | 5.514 | 5.514 Mbytes
Step Temp E_pair Volume TotEng Press Density v_cPt v_cAu 
    3300     462.6716   -1158.1268    4299.0457   -1142.8765   -854.03098     19.35611          166           90 
    3400    412.65862   -1156.5232    4277.6138   -1142.9215    10217.707    19.453089          166           90 
Per MPI rank memory allocation (min/avg/max) = 5.514 | 5.514 | 5.514 Mbytes
Step Temp E_pair Volume TotEng Press Density v_cPt v_cAu 
    3400    412.65862   -1156.5232    4277.6138   -1142.9215    10217.707    19.453089          166           90 
    3500     397.6412   -1156.1097    4319.7683   -1143.0029    -7396.527    19.263256          166           90 
Per MPI rank memory allocation (min/avg/max) = 5.514 | 5.514 | 5.514 Mbytes
Step Temp E_pair Volume TotEng Press Density v_cPt v_cAu 
    3500     397.6412   -1156.1097    4319.7683   -1143.0029    -7396.527    19.263256          166           90 
    3600    434.36782   -1157.5019    4298.8247   -1143.1846    131.75275    19.357105          166           90 
Per MPI rank memory allocation (min/avg/max) = 5.514 | 5.514 | 5.514 Mbytes
Step Temp E_pair Volume TotEng Press Density v_cPt v_cAu 
    3600    434.36782   -1157.5019    4298.8247   -1143.1846    131.75275    19.357105          166           90 
    3700    439.44925   -1157.7015     4276.547   -1143.2167    9011.3591    19.457941          166           90 
Per MPI rank memory allocation (min/avg/max) = 5.514 | 5.514 | 5.514 Mbytes
Step Temp E_pair Volume TotEng Press Density v_cPt v_cAu 
    3700    439.44925   -1157.7015     4276.547   -1143.2167    9011.3591    19.457941          166           90 
    3800    428.43684   -1157.4771    4319.6604   -1143.3553   -6467.9025    19.263737          166           90 
Per MPI rank memory allocation (min/avg/max) = 5.514 | 5.514 | 5.514 Mbytes
Step Temp E_pair Volume TotEng Press Density v_cPt v_cAu 
    3800    428.43684   -1157.6885    4319.6604   -1143.5666   -7130.4238    19.263737          166           90 
    3900    403.09996   -1156.9647    4314.2041   -1143.6779   -3531.8021    19.288101          166           90 
Per MPI rank memory allocation (min/avg/max) = 5.514 | 5.514 | 5.514 Mbytes
Step Temp E_pair Volume TotEng Press Density v_cPt v_cAu 
    3900    403.09996   -1156.9647    4314.2041   -1143.6779   -3531.8021    19.288101          166           90 
    4000    454.53585   -1158.7221    4274.2034     -1143.74    8349.8744    19.468611          166           90 
Per MPI rank memory allocation (min/avg/max) = 5.514 | 5.514 | 5.514 Mbytes
Step Temp E_pair Volume TotEng Press Density v_cPt v_cAu 
    4000    454.53585   -1158.7221    4274.2034     -1143.74    8349.8744    19.468611          166           90 
    4100    425.24302   -1157.9371    4296.6286   -1143.9205   -105.60618    19.366999          166           90 
Per MPI rank memory allocation (min/avg/max) = 5.514 | 5.514 | 5.514 Mbytes
Step Temp E_pair Volume TotEng Press Density v_cPt v_cAu 
    4100    425.24302   -1157.9371    4296.6286   -1143.9205   -105.60618    19.366999          166           90 
    4200    413.34465   -1157.5739    4321.6054   -1143.9495   -10239.861    19.255067          166           90 
Per MPI rank memory allocation (min/avg/max) = 5.514 | 5.514 | 5.514 Mbytes
Step Temp E_pair Volume TotEng Press Density v_cPt v_cAu 
    4200    413.34465   -1157.5739    4321.6054   -1143.9495   -10239.861    19.255067          166           90 
    4300    429.84044   -1158.2338    4277.5143   -1144.0657    10084.176    19.453541          166           90 
Per MPI rank memory allocation (min/avg/max) = 5.514 | 5.514 | 5.514 Mbytes
Step Temp E_pair Volume TotEng Press Density v_cPt v_cAu 
    4300    429.84044   -1158.2338    4277.5143   -1144.0657    10084.176    19.453541          166           90 
    4400    413.58153   -1157.8557    4295.1207   -1144.2235     1680.536    19.373798          166           90 
Per MPI rank memory allocation (min/avg/max) = 5.514 | 5.514 | 5.514 Mbytes
Step Temp E_pair Volume TotEng Press Density v_cPt v_cAu 
    4400    413.58153   -1157.8557    4295.1207   -1144.2235     1680.536    19.373798          166           90 
    4500    429.35584   -1158.4189    4321.3031   -1144.2667   -12369.113    19.256414          166           90 
Per MPI rank memory allocation (min/avg/max) = 5.514 | 5.514 | 5.514 Mbytes
Step Temp E_pair Volume TotEng Press Density v_cPt v_cAu 
    4500    429.35584   -1158.4189    4321.3031   -1144.2667   -12369.113    19.256414          166           90 
    4600    419.05609    -1158.205    4269.1026   -1144.3924    10855.616    19.491872          166           90 
Per MPI rank memory allocation (min/avg/max) = 5.514 | 5.514 | 5.514 Mbytes
Step Temp E_pair Volume TotEng Press Density v_cPt v_cAu 
    4600    419.05609    -1158.205    4269.1026   -1144.3924    10855.616    19.491872          166           90 
    4700     408.0272   -1158.0568    4290.6149   -1144.6077    3241.9414    19.394144          166           90 
Per MPI rank memory allocation (min/avg/max) = 5.514 | 5.514 | 5.514 Mbytes
Step Temp E_pair Volume TotEng Press Density v_cPt v_cAu 
    4700     408.0272   -1158.0568    4290.6149   -1144.6077    3241.9414    19.394144          166           90 
    4800    381.92119   -1157.1795      4327.37   -1144.5908   -11808.207    19.229417          166           90 
Per MPI rank memory allocation (min/avg/max) = 5.514 | 5.514 | 5.514 Mbytes
Step Temp E_pair Volume TotEng Press Density v_cPt v_cAu 
    4800    381.92119   -1157.1795      4327.37   -1144.5908   -11808.207    19.229417          166           90 
    4900    446.41581   -1159.4439    4277.8702   -1144.7295    5845.2951    19.451923          166           90 
Per MPI rank memory allocation (min/avg/max) = 5.514 | 5.514 | 5.514 Mbytes
Step Temp E_pair Volume TotEng Press Density v_cPt v_cAu 
    4900    446.41581   -1159.4439    4277.8702   -1144.7295    5845.2951    19.451923          166           90 
    5000    418.82896   -1158.6459    4275.9332   -1144.8408    6458.1729    19.460735          166           90 
Per MPI rank memory allocation (min/avg/max) = 5.514 | 5.514 | 5.514 Mbytes
Step Temp E_pair Volume TotEng Press Density v_cPt v_cAu 
    5000    418.82896   -1158.6459    4275.9332   -1144.8408    6458.1729    19.460735          166           90 
    5100     403.7256   -1158.2115    4319.8844   -1144.9042   -9301.9783    19.262738          166           90 
Per MPI rank memory allocation (min/avg/max) = 5.514 | 5.514 | 5.514 Mbytes
Step Temp E_pair Volume TotEng Press Density v_cPt v_cAu 
    5100     403.7256   -1155.9394    4319.8844   -1142.6321   -8471.4666     19.26346          165           91 
    5200    415.28934   -1156.4787    4300.6707   -1142.7902   -1179.0928    19.349521          165           91 
Per MPI rank memory allocation (min/avg/max) = 5.514 | 5.514 | 5.514 Mbytes
Step Temp E_pair Volume TotEng Press Density v_cPt v_cAu 
    5200    415.28934   -1156.4787    4300.6707   -1142.7902   -1179.0928    19.349521          165           91 
    5300    406.98334    -1156.257    4275.7688   -1142.8423    7651.6428    19.462212          165           91 
Per MPI rank memory allocation (min/avg/max) = 5.514 | 5.514 | 5.514 Mbytes
Step Temp E_pair Volume TotEng Press Density v_cPt v_cAu 
    5300    406.98334    -1156.257    4275.7688   -1142.8423    7651.6428    19.462212          165           91 
    5400    377.96417   -1155.4391    4305.8836   -1142.9809   -2795.0505    19.326095          165           91 
Per MPI rank memory allocation (min/avg/max) = 5.514 | 5.514 | 5.514 Mbytes
Step Temp E_pair Volume TotEng Press Density v_cPt v_cAu 
    5400    377.96417   -1155.4391    4305.8836   -1142.9809   -2795.0505    19.326095          165           91 
    5500    422.41059   -1157.0151    4306.1451   -1143.0918   -4489.0577    19.324922          165           91 
Per MPI rank memory allocation (min/avg/max) = 5.514 | 5.514 | 5.514 Mbytes
Step Temp E_pair Volume TotEng Press Density v_cPt v_cAu 
    5500    422.41059   -1157.0151    4306.1451   -1143.0918   -4489.0577    19.324922          165           91 
    5600    415.25161   -1156.8273     4278.247     -1143.14    6989.3767    19.450938          165           91 
Per MPI rank memory allocation (min/avg/max) = 5.514 | 5.514 | 5.514 Mbytes
Step Temp E_pair Volume TotEng Press Density v_cPt v_cAu 
    5600    415.25161   -1156.8273     4278.247     -1143.14    6989.3767    19.450938          165           91 
    5700    409.80421   -1156.7757    4305.5153    -1143.268   -5073.5619    19.327749          165           91 
Per MPI rank memory allocation (min/avg/max) = 5.514 | 5.514 | 5.514 Mbytes
Step Temp E_pair Volume TotEng Press Density v_cPt v_cAu 
    5700    409.80421   -1156.7644    4305.5153   -1143.2567   -5056.0318    19.327749          165           91 
    5800    401.65325   -1156.5585    4310.9788   -1143.3195   -2547.7056    19.303254          165           91 
Per MPI rank memory allocation (min/avg/max) = 5.514 | 5.514 | 5.514 Mbytes
Step Temp E_pair Volume TotEng Press Density v_cPt v_cAu 
    5800    401.65325   -1156.5585    4310.9788   -1143.3195   -2547.7056    19.303254          165           91 
    5900    402.83712   -1156.6805    4293.3111   -1143.4024    2433.4594     19.38269          165           91 
Per MPI rank memory allocation (min/avg/max) = 5.514 | 5.514 | 5.514 Mbytes
Step Temp E_pair Volume TotEng Press Density v_cPt v_cAu 
    5900    402.83712   -1156.6805    4293.3111   -1143.4024    2433.4594     19.38269          165           91 
    6000    397.34958   -1156.5765    4289.6268   -1143.4793   -1.4755181    19.399337          165           91 
Per MPI rank memory allocation (min/avg/max) = 5.514 | 5.514 | 5.514 Mbytes
Step Temp E_pair Volume TotEng Press Density v_cPt v_cAu 
    6000    397.34958   -1156.5765    4289.6268   -1143.4793   -1.4755181    19.399337          165           91 
    6100     402.3616   -1156.8177    4294.5388   -1143.5553     95.14345    19.377149          165           91 
Per MPI rank memory allocation (min/avg/max) = 5.514 | 5.514 | 5.514 Mbytes
Step Temp E_pair Volume TotEng Press Density v_cPt v_cAu 
    6100     402.3616   -1156.8177    4294.5388   -1143.5553     95.14345    19.377149          165           91 
    6200    406.48019   -1157.0196    4300.5127   -1143.6215   -2594.4326    19.350232          165           91 
Per MPI rank memory allocation (min/avg/max) = 5.514 | 5.514 | 5.514 Mbytes
Step Temp E_pair Volume TotEng Press Density v_cPt v_cAu 
    6200    406.48019   -1154.5189    4300.5127   -1141.1208   -1156.2973    19.350956          164           92 
    6300    385.12712   -1153.8813    4298.2429    -1141.187    1858.4796    19.361175          164           92 
Per MPI rank memory allocation (min/avg/max) = 5.514 | 5.514 | 5.514 Mbytes
Step Temp E_pair Volume TotEng Press Density v_cPt v_cAu 
    6300    385.12712   -1153.8813    4298.2429    -1141.187    1858.4796    19.361175          164           92 
    6400    398.91528   -1154.3952    4304.1723   -1141.2464   -818.75857    19.334503          164           92 
Per MPI rank memory allocation (min/avg/max) = 5.514 | 5.514 | 5.514 Mbytes
Step Temp E_pair Volume TotEng Press Density v_cPt v_cAu 
    6400    398.91528   -1154.3952    4304.1723   -1141.2464   -818.75857    19.334503          164           92 
    6500    359.97841   -1153.1663    4301.2684   -1141.3009    149.48239    19.347557          164           92 
Per MPI rank memory allocation (min/avg/max) = 5.514 | 5.514 | 5.514 Mbytes
Step Temp E_pair Volume TotEng Press Density v_cPt v_cAu 
    6500    359.97841   -1153.1663    4301.2684   -1141.3009    149.48239    19.347557          164           92 
    6600    404.01487   -1154.6647    4292.1228   -1141.3478    1780.4005    19.388782          164           92 
Per MPI rank memory allocation (min/avg/max) = 5.514 | 5.514 | 5.514 Mbytes
Step Temp E_pair Volume TotEng Press Density v_cPt v_cAu 
    6600    404.01487   -1154.6647    4292.1228   -1141.3478    1780.4005    19.388782          164           92 
    6700    418.05101    -1155.169    4295.0153   -1141.3895    -752.5393    19.375724          164           92 
Per MPI rank memory allocation (min/avg/max) = 5.514 | 5.514 | 5.514 Mbytes
Step Temp E_pair Volume TotEng Press Density v_cPt v_cAu 
    6700    418.05101    -1155.169    4295.0153   -1141.3895    -752.5393    19.375724          164           92 
    6800    388.62378   -1154.2365    4306.7759   -1141.4269   -1807.9381    19.322815          164           92 
Per MPI rank memory allocation (min/avg/max) = 5.514 | 5.514 | 5.514 Mbytes
Step Temp E_pair Volume TotEng Press Density v_cPt v_cAu 
    6800    388.62378   -1154.2365    4306.7759   -1141.4269   -1807.9381    19.322815          164           92 
    6900    383.34125   -1154.0992    4303.5703   -1141.4638   -974.89012    19.337208          164           92 
Per MPI rank memory allocation (min/avg/max) = 5.514 | 5.514 | 5.514 Mbytes
Step Temp E_pair Volume TotEng Press Density v_cPt v_cAu 
    6900    383.34125   -1154.0992    4303.5703   -1141.4638   -974.89012    19.337208          164           92 
    7000    389.98041   -1154.3316    4291.3949   -1141.4773    3023.9922    19.392071          164           92 
Per MPI rank memory allocation (min/avg/max) = 5.514 | 5.514 | 5.514 Mbytes
Step Temp E_pair Volume TotEng Press Density v_cPt v_cAu 
    7000    389.98041   -1154.3316    4291.3949   -1141.4773    3023.9922    19.392071          164           92 
    7100    393.81048    -1154.479    4296.8777   -1141.4985   -1593.1264    19.367327          164           92 
Per MPI rank memory allocation (min/avg/max) = 5.514 | 5.514 | 5.514 Mbytes
Step Temp E_pair Volume TotEng Press Density v_cPt v_cAu 
    7100    393.81048   -1156.9203    4296.8777   -1143.9398   -2711.5573    19.366602          165           91 
    7200    401.29643   -1157.1813     4291.387    -1143.954    513.37107     19.39138          165           91 
Per MPI rank memory allocation (min/avg/max) = 5.514 | 5.514 | 5.514 Mbytes
Step Temp E_pair Volume TotEng Press Density v_cPt v_cAu 
    7200    401.29643   -1157.1813     4291.387    -1143.954    513.37107     19.39138          165           91 
    7300    397.87202   -1157.0908     4294.354   -1143.9764    3622.6186    19.377983          165           91 
Per MPI rank memory allocation (min/avg/max) = 5.514 | 5.514 | 5.514 Mbytes
Step Temp E_pair Volume TotEng Press Density v_cPt v_cAu 
    7300    397.87202   -1157.0908     4294.354   -1143.9764    3622.6186    19.377983          165           91 
    7400    379.29123   -1156.4724    4312.2887   -1143.9705   -8542.7823     19.29739          165           91 
Per MPI rank memory allocation (min/avg/max) = 5.514 | 5.514 | 5.514 Mbytes
Step Temp E_pair Volume TotEng Press Density v_cPt v_cAu 
    7400    379.29123   -1156.4724    4312.2887   -1143.9705   -8542.7823     19.29739          165           91 
    7500     394.6386   -1157.0117    4276.1511   -1144.0039    6822.2626    19.460472          165           91 
Per MPI rank memory allocation (min/avg/max) = 5.514 | 5.514 | 5.514 Mbytes
Step Temp E_pair Volume TotEng Press Density v_cPt v_cAu 
    7500     394.6386   -1157.0117    4276.1511   -1144.0039    6822.2626    19.460472          165           91 
    7600    415.61086   -1157.7181    4282.9794    -1144.019    3884.1092    19.429446          165           91 
Per MPI rank memory allocation (min/avg/max) = 5.514 | 5.514 | 5.514 Mbytes
Step Temp E_pair Volume TotEng Press Density v_cPt v_cAu 
    7600    415.61086   -1157.7181    4282.9794    -1144.019    3884.1092    19.429446          165           91 
    7700    376.14819   -1156.3343    4323.3142    -1143.936   -12825.906    19.248177          165           91 
Per MPI rank memory allocation (min/avg/max) = 5.514 | 5.514 | 5.514 Mbytes
Step Temp E_pair Volume TotEng Press Density v_cPt v_cAu 
    7700    376.14819   -1156.3343    4323.3142    -1143.936   -12825.906    19.248177          165           91 
    7800    404.92524   -1157.3572     4278.586   -1144.0103    7409.1748    19.449397          165           91 
Per MPI rank memory allocation (min/avg/max) = 5.514 | 5.514 | 5.514 Mbytes
Step Temp E_pair Volume TotEng Press Density v_cPt v_cAu 
    7800    404.92524   -1157.3572     4278.586   -1144.0103    7409.1748    19.449397          165           91 
    7900    387.18124   -1156.7663    4281.2555   -1144.0043    7217.9762     19.43727          165           91 
Per MPI rank memory allocation (min/avg/max) = 5.514 | 5.514 | 5.514 Mbytes
Step Temp E_pair Volume TotEng Press Density v_cPt v_cAu 
    7900    387.18124    -1159.273    4281.2555    -1146.511    5909.9091    19.436542          166           90 
    8000    397.09611    -1159.425    4326.6221   -1146.3362   -14305.158    19.232741          166           90 
Per MPI rank memory allocation (min/avg/max) = 5.514 | 5.514 | 5.514 Mbytes
Step Temp E_pair Volume TotEng Press Density v_cPt v_cAu 
    8000    397.09611    -1159.425    4326.6221   -1146.3362   -14305.158    19.232741          166           90 
    8100    379.49469   -1158.8765    4274.6418   -1146.3679    8036.4404    19.466614          166           90 
Per MPI rank memory allocation (min/avg/max) = 5.514 | 5.514 | 5.514 Mbytes
Step Temp E_pair Volume TotEng Press Density v_cPt v_cAu 
    8100    379.49469   -1159.0461    4274.6418   -1146.5375     8333.645    19.466614          166           90 
    8200    392.19108   -1159.3678    4271.9156   -1146.4406    7837.1193    19.479037          166           90 
Per MPI rank memory allocation (min/avg/max) = 5.514 | 5.514 | 5.514 Mbytes
Step Temp E_pair Volume TotEng Press Density v_cPt v_cAu 
    8200    392.19108   -1159.3678    4271.9156   -1146.4406    7837.1193    19.479037          166           90 
    8300    406.46697   -1159.6569    4322.4927   -1146.2592   -11786.145    19.251114          166           90 
Per MPI rank memory allocation (min/avg/max) = 5.514 | 5.514 | 5.514 Mbytes
Step Temp E_pair Volume TotEng Press Density v_cPt v_cAu 
    8300    406.46697   -1159.6569    4322.4927   -1146.2592   -11786.145    19.251114          166           90 
    8400    382.81823   -1158.8288    4292.1912   -1146.2106    991.34403    19.387021          166           90 
Per MPI rank memory allocation (min/avg/max) = 5.514 | 5.514 | 5.514 Mbytes
Step Temp E_pair Volume TotEng Press Density v_cPt v_cAu 
    8400    382.81823   -1156.4518    4292.1912   -1143.8336    1849.5081    19.387747          165           91 
    8500    419.39681    -1157.415     4271.218   -1143.5911    11100.867    19.482948          165           91 
Per MPI rank memory allocation (min/avg/max) = 5.514 | 5.514 | 5.514 Mbytes
Step Temp E_pair Volume TotEng Press Density v_cPt v_cAu 
    8500    419.39681    -1157.415     4271.218   -1143.5911    11100.867    19.482948          165           91 
    8600    374.06049   -1155.7533    4324.8682   -1143.4238   -8743.0604    19.241261          165           91 
Per MPI rank memory allocation (min/avg/max) = 5.514 | 5.514 | 5.514 Mbytes
Step Temp E_pair Volume TotEng Press Density v_cPt v_cAu 
    8600    374.06049   -1155.7533    4324.8682   -1143.4238   -8743.0604    19.241261          165           91 
    8700    411.01883    -1156.858    4309.6763   -1143.3103    -5925.432    19.309088          165           91 
Per MPI rank memory allocation (min/avg/max) = 5.514 | 5.514 | 5.514 Mbytes
Step Temp E_pair Volume TotEng Press Density v_cPt v_cAu 
    8700    411.01883    -1156.858    4309.6763   -1143.3103    -5925.432    19.309088          165           91 
    8800    409.83131   -1156.4345    4256.5395   -1142.9259    16899.472    19.550134          165           91 
Per MPI rank memory allocation (min/avg/max) = 5.514 | 5.514 | 5.514 Mbytes
Step Temp E_pair Volume TotEng Press Density v_cPt v_cAu 
    8800    409.83131   -1156.4345    4256.5395   -1142.9259    16899.472    19.550134          165           91 
    8900     410.5052   -1156.4297    4316.9043   -1142.8989   -7083.5294    19.276758          165           91 
Per MPI rank memory allocation (min/avg/max) = 5.514 | 5.514 | 5.514 Mbytes
Step Temp E_pair Volume TotEng Press Density v_cPt v_cAu 
    8900     410.5052   -1156.3704    4316.9043   -1142.8396   -6810.8251    19.276758          165           91 
    9000    417.37239   -1156.3645    4327.6607   -1142.6073   -12900.308    19.228845          165           91 
Per MPI rank memory allocation (min/avg/max) = 5.514 | 5.514 | 5.514 Mbytes
Step Temp E_pair Volume TotEng Press Density v_cPt v_cAu 
    9000    417.37239   -1156.3645    4327.6607   -1142.6073   -12900.308    19.228845          165           91 
    9100    457.13213   -1157.3713    4256.9062   -1142.3036    16496.707     19.54845          165           91 
Per MPI rank memory allocation (min/avg/max) = 5.514 | 5.514 | 5.514 Mbytes
Step Temp E_pair Volume TotEng Press Density v_cPt v_cAu 
    9100    457.13213   -1157.3713    4256.9062   -1142.3036    16496.707     19.54845          165           91 
    9200    410.81467    -1155.912    4304.3129    -1142.371   -2773.9943    19.333148          165           91 
Per MPI rank memory allocation (min/avg/max) = 5.514 | 5.514 | 5.514 Mbytes
Step Temp E_pair Volume TotEng Press Density v_cPt v_cAu 
    9200    410.81467   -1153.4013    4304.3129   -1139.8603   -1466.1737    19.333872          164           92 
    9300    418.92959   -1153.3682    4336.5859   -1139.5597   -13336.847    19.189989          164           92 
Per MPI rank memory allocation (min/avg/max) = 5.514 | 5.514 | 5.514 Mbytes
Step Temp E_pair Volume TotEng Press Density v_cPt v_cAu 
    9300    418.92959   -1151.1172    4336.5859   -1137.3087   -12327.383    19.190707          163           93 
    9400    435.83254   -1151.5481    4277.5487   -1137.1825    13599.712     19.45557          163           93 
Per MPI rank memory allocation (min/avg/max) = 5.514 | 5.514 | 5.514 Mbytes
Step Temp E_pair Volume TotEng Press Density v_cPt v_cAu 
    9400    435.83254   -1151.5481    4277.5487   -1137.1825    13599.712     19.45557          163           93 
    9500    450.83684   -1152.0741    4310.1871    -1137.214    -2974.919    19.308245          163           93 
Per MPI rank memory allocation (min/avg/max) = 5.514 | 5.514 | 5.514 Mbytes
Step Temp E_pair Volume TotEng Press Density v_cPt v_cAu 
    9500    450.83684   -1152.0741    4310.1871    -1137.214    -2974.919    19.308245          163           93 
    9600    395.46658   -1150.0787    4332.8391   -1137.0436   -9014.8357    19.207302          163           93 
Per MPI rank memory allocation (min/avg/max) = 5.514 | 5.514 | 5.514 Mbytes
Step Temp E_pair Volume TotEng Press Density v_cPt v_cAu 
    9600    395.46658   -1150.0787    4332.8391   -1137.0436   -9014.8357    19.207302          163           93 
    9700      436.691    -1151.393    4288.4168   -1136.9991    9139.6066    19.406264          163           93 
Per MPI rank memory allocation (min/avg/max) = 5.514 | 5.514 | 5.514 Mbytes
Step Temp E_pair Volume TotEng Press Density v_cPt v_cAu 
    9700      436.691   -1153.8307    4288.4168   -1139.4368    7795.5404    19.405538          164           92 
    9800    427.61247    -1153.538    4300.8829   -1139.4433    692.25799    19.349291          164           92 
Per MPI rank memory allocation (min/avg/max) = 5.514 | 5.514 | 5.514 Mbytes
Step Temp E_pair Volume TotEng Press Density v_cPt v_cAu 
    9800    427.61247    -1153.538    4300.8829   -1139.4433    692.25799    19.349291          164           92 
    9900    417.99813   -1153.1775    4317.3144   -1139.3997   -4438.1689    19.275648          164           92 
Per MPI rank memory allocation (min/avg/max) = 5.514 | 5.514 | 5.514 Mbytes
Step Temp E_pair Volume TotEng Press Density v_cPt v_cAu 
    9900    417.99813   -1153.1775    4317.3144   -1139.3997   -4438.1689    19.275648          164           92 
   10000    428.25274   -1153.5267    4298.6368   -1139.4109     2766.961    19.359401          164           92 
Per MPI rank memory allocation (min/avg/max) = 5.514 | 5.514 | 5.514 Mbytes
Step Temp E_pair Volume TotEng Press Density v_cPt v_cAu 
   10000    428.25274   -1150.9577    4298.6368   -1136.8419    4164.3016    19.360126          163           93 
   10100    463.31162   -1152.1488    4305.0824   -1136.8775   -1485.9893     19.33114          163           93 
Per MPI rank memory allocation (min/avg/max) = 5.514 | 5.514 | 5.514 Mbytes
Step Temp E_pair Volume TotEng Press Density v_cPt v_cAu 
   10100    463.31162   -1152.1488    4305.0824   -1136.8775   -1485.9893     19.33114          163           93 
   10200    436.61641   -1151.3339    4312.2816   -1136.9424   -1485.1226    19.298867          163           93 
Per MPI rank memory allocation (min/avg/max) = 5.514 | 5.514 | 5.514 Mbytes
Step Temp E_pair Volume TotEng Press Density v_cPt v_cAu 
   10200    436.61641   -1151.3339    4312.2816   -1136.9424   -1485.1226    19.298867          163           93 
   10300    424.09603   -1151.0021    4311.9465   -1137.0234   -2216.7037    19.300367          163           93 
Per MPI rank memory allocation (min/avg/max) = 5.514 | 5.514 | 5.514 Mbytes
Step Temp E_pair Volume TotEng Press Density v_cPt v_cAu 
   10300    424.09603   -1151.0021    4311.9465   -1137.0234   -2216.7037    19.300367          163           93 
   10400    413.50685   -1150.7624    4296.4171   -1137.1326    3179.2774    19.370128          163           93 
Per MPI rank memory allocation (min/avg/max) = 5.514 | 5.514 | 5.514 Mbytes
Step Temp E_pair Volume TotEng Press Density v_cPt v_cAu 
   10400    413.50685   -1150.7624    4296.4171   -1137.1326    3179.2774    19.370128          163           93 
   10500     441.7757   -1151.8317    4306.3194   -1137.2702    944.17119    19.325587          163           93 
Per MPI rank memory allocation (min/avg/max) = 5.514 | 5.514 | 5.514 Mbytes
Step Temp E_pair Volume TotEng Press Density v_cPt v_cAu 
   10500     441.7757   -1151.8317    4306.3194   -1137.2702    944.17119    19.325587          163           93 
   10600    397.83137    -1150.494    4323.3258   -1137.3809   -6118.0959    19.249567          163           93 
Per MPI rank memory allocation (min/avg/max) = 5.514 | 5.514 | 5.514 Mbytes
Step Temp E_pair Volume TotEng Press Density v_cPt v_cAu 
   10600    397.83137    -1150.494    4323.3258   -1137.3809   -6118.0959    19.249567          163           93 
   10700    454.07158   -1152.5198    4294.2953    -1137.553    1349.5448    19.379699          163           93 
Per MPI rank memory allocation (min/avg/max) = 5.514 | 5.514 | 5.514 Mbytes
Step Temp E_pair Volume TotEng Press Density v_cPt v_cAu 
   10700    454.07158   -1152.5198    4294.2953    -1137.553    1349.5448    19.379699          163           93 
   10800     398.2606   -1150.8706    4289.7841   -1137.7434    8955.7522    19.400079          163           93 
Per MPI rank memory allocation (min/avg/max) = 5.514 | 5.514 | 5.514 Mbytes
Step Temp E_pair Volume TotEng Press Density v_cPt v_cAu 
   10800     398.2606   -1150.8706    4289.7841   -1137.7434    8955.7522    19.400079          163           93 
   10900    385.23737   -1150.5464    4336.8295   -1137.8485   -10983.758    19.189629          163           93 
Per MPI rank memory allocation (min/avg/max) = 5.514 | 5.514 | 5.514 Mbytes
Step Temp E_pair Volume TotEng Press Density v_cPt v_cAu 
   10900    385.23737   -1150.5464    4336.8295   -1137.8485   -10983.758    19.189629          163           93 
   11000    423.17186   -1152.0681    4302.6262   -1138.1198    1744.6803    19.342175          163           93 
Per MPI rank memory allocation (min/avg/max) = 5.514 | 5.514 | 5.514 Mbytes
Step Temp E_pair Volume TotEng Press Density v_cPt v_cAu 
   11000    423.17186   -1152.0681    4302.6262   -1138.1198    1744.6803    19.342175          163           93 
   11100     409.5694    -1151.672    4277.0704   -1138.1721     9463.258    19.457746          163           93 
Per MPI rank memory allocation (min/avg/max) = 5.514 | 5.514 | 5.514 Mbytes
Step Temp E_pair Volume TotEng Press Density v_cPt v_cAu 
   11100     409.5694    -1151.672    4277.0704   -1138.1721     9463.258    19.457746          163           93 
   11200    407.60851   -1151.7597    4317.1396   -1138.3244   -7519.3374     19.27715          163           93 
Per MPI rank memory allocation (min/avg/max) = 5.514 | 5.514 | 5.514 Mbytes
Step Temp E_pair Volume TotEng Press Density v_cPt v_cAu 
   11200    407.60851   -1154.2625    4317.1396   -1140.8272   -9048.1698    19.276429          164           92 
   11300    390.37892   -1153.8296    4305.9533   -1140.9622    1327.3169    19.326506          164           92 
Per MPI rank memory allocation (min/avg/max) = 5.514 | 5.514 | 5.514 Mbytes
Step Temp E_pair Volume TotEng Press Density v_cPt v_cAu 
   11300    390.37892   -1153.8296    4305.9533   -1140.9622    1327.3169    19.326506          164           92 
   11400    399.17118   -1154.2091    4293.0867   -1141.0519    3195.7696    19.384429          164           92 
Per MPI rank memory allocation (min/avg/max) = 5.514 | 5.514 | 5.514 Mbytes
Step Temp E_pair Volume TotEng Press Density v_cPt v_cAu 
   11400    399.17118   -1154.2091    4293.0867   -1141.0519    3195.7696    19.384429          164           92 
   11500    403.98585   -1154.4649    4304.1577    -1141.149   -2108.6884    19.334569          164           92 
Per MPI rank memory allocation (min/avg/max) = 5.514 | 5.514 | 5.514 Mbytes
Step Temp E_pair Volume TotEng Press Density v_cPt v_cAu 
   11500    403.98585   -1154.4649    4304.1577    -1141.149   -2108.6884    19.334569          164           92 
   11600     448.8744   -1156.0392     4299.819   -1141.2437   -3697.8067    19.354078          164           92 
Per MPI rank memory allocation (min/avg/max) = 5.514 | 5.514 | 5.514 Mbytes
Step Temp E_pair Volume TotEng Press Density v_cPt v_cAu 
   11600     448.8744   -1156.0392     4299.819   -1141.2437   -3697.8067    19.354078          164           92 
   11700    380.84149   -1153.8697     4287.724   -1141.3167    7361.7454    19.408673          164           92 
Per MPI rank memory allocation (min/avg/max) = 5.514 | 5.514 | 5.514 Mbytes
Step Temp E_pair Volume TotEng Press Density v_cPt v_cAu 
   11700    380.84149   -1153.8697     4287.724   -1141.3167    7361.7454    19.408673          164           92 
   11800    412.55359    -1154.968    4319.1786   -1141.3697    -8230.699    19.267329          164           92 
Per MPI rank memory allocation (min/avg/max) = 5.514 | 5.514 | 5.514 Mbytes
Step Temp E_pair Volume TotEng Press Density v_cPt v_cAu 
   11800    412.55359    -1154.968    4319.1786   -1141.3697    -8230.699    19.267329          164           92 
   11900    378.38517   -1153.9497    4296.9616   -1141.4776   -24.362753    19.366948          164           92 
Per MPI rank memory allocation (min/avg/max) = 5.514 | 5.514 | 5.514 Mbytes
Step Temp E_pair Volume TotEng Press Density v_cPt v_cAu 
   11900    378.38517   -1153.9497    4296.9616   -1141.4776   -24.362753    19.366948          164           92 
   12000    414.94408   -1155.1258    4275.5998   -1141.4486    9357.1298     19.46371          164           92 
Per MPI rank memory allocation (min/avg/max) = 5.514 | 5.514 | 5.514 Mbytes
Step Temp E_pair Volume TotEng Press Density v_cPt v_cAu 
   12000    414.94408   -1152.7714    4275.5998   -1139.0943     10329.56    19.464439          163           93 
   12100    400.91974   -1152.3745    4323.1861   -1139.1597   -7646.9657    19.250189          163           93 
Per MPI rank memory allocation (min/avg/max) = 5.514 | 5.514 | 5.514 Mbytes
Step Temp E_pair Volume TotEng Press Density v_cPt v_cAu 
   12100    400.91974   -1152.3745    4323.1861   -1139.1597   -7646.9657    19.250189          163           93 
   12200    385.65766   -1151.9353    4316.9976   -1139.2235   -6674.4477    19.277785          163           93 
Per MPI rank memory allocation (min/avg/max) = 5.514 | 5.514 | 5.514 Mbytes
Step Temp E_pair Volume TotEng Press Density v_cPt v_cAu 
   12200    385.65766   -1151.9353    4316.9976   -1139.2235   -6674.4477    19.277785          163           93 
   12300    437.25529   -1153.5392     4269.233   -1139.1267    10855.121    19.493466          163           93 
Per MPI rank memory allocation (min/avg/max) = 5.514 | 5.514 | 5.514 Mbytes
Step Temp E_pair Volume TotEng Press Density v_cPt v_cAu 
   12300    437.25529   -1153.5392     4269.233   -1139.1267    10855.121    19.493466          163           93 
   12400    381.00142   -1151.8229    4306.5308   -1139.2646   -2026.6146    19.324638          163           93 
Per MPI rank memory allocation (min/avg/max) = 5.514 | 5.514 | 5.514 Mbytes
Step Temp E_pair Volume TotEng Press Density v_cPt v_cAu 
   12400    381.00142   -1151.8229    4306.5308   -1139.2646   -2026.6146    19.324638          163           93 
   12500    375.66972    -1151.557    4329.2755   -1139.1744    -8930.021    19.223113          163           93 
Per MPI rank memory allocation (min/avg/max) = 5.514 | 5.514 | 5.514 Mbytes
Step Temp E_pair Volume TotEng Press Density v_cPt v_cAu 
   12500    375.66972    -1151.557    4329.2755   -1139.1744    -8930.021    19.223113          163           93 
   12600    425.45718   -1153.1922    4283.8629   -1139.1686    7514.6096    19.426894          163           93 
Per MPI rank memory allocation (min/avg/max) = 5.514 | 5.514 | 5.514 Mbytes
Step Temp E_pair Volume TotEng Press Density v_cPt v_cAu 
   12600    425.45718   -1153.2658    4283.8629   -1139.2421      7135.28    19.426894          163           93 
   12700    388.66842   -1152.0612    4287.1083   -1139.2501    2784.1899    19.412188          163           93 
Per MPI rank memory allocation (min/avg/max) = 5.514 | 5.514 | 5.514 Mbytes
Step Temp E_pair Volume TotEng Press Density v_cPt v_cAu 
   12700    388.66842   -1152.0095    4287.1083   -1139.1985    3221.3122    19.412188          163           93 
   12800    407.12402    -1152.596    4316.3232   -1139.1766   -5999.1019    19.280797          163           93 
Per MPI rank memory allocation (min/avg/max) = 5.514 | 5.514 | 5.514 Mbytes
Step Temp E_pair Volume TotEng Press Density v_cPt v_cAu 
   12800    407.12402    -1152.596    4316.3232   -1139.1766   -5999.1019    19.280797          163           93 
   12900    405.99037   -1152.5715    4308.2992   -1139.1895   -1403.1975    19.316706          163           93 
Per MPI rank memory allocation (min/avg/max) = 5.514 | 5.514 | 5.514 Mbytes
Step Temp E_pair Volume TotEng Press Density v_cPt v_cAu 
   12900    405.99037   -1150.1892    4308.2992   -1136.8072   -244.05987    19.317429          162           94 
   13000    424.58607   -1150.7921    4300.5363   -1136.7971    2132.2145    19.352299          162           94 
Per MPI rank memory allocation (min/avg/max) = 5.514 | 5.514 | 5.514 Mbytes
Step Temp E_pair Volume TotEng Press Density v_cPt v_cAu 
   13000    424.58607   -1150.7921    4300.5363   -1136.7971    2132.2145    19.352299          162           94 
   13100    402.88848   -1150.0821    4313.9631   -1136.8023   -2686.8657    19.292067          162           94 
Per MPI rank memory allocation (min/avg/max) = 5.514 | 5.514 | 5.514 Mbytes
Step Temp E_pair Volume TotEng Press Density v_cPt v_cAu 
   13100    402.88848   -1147.5133    4313.9631   -1134.2336   -1204.8956     19.29279          161           95 
   13200    380.94794    -1146.793     4315.801   -1134.2365   -1151.9939    19.284574          161           95 
Per MPI rank memory allocation (min/avg/max) = 5.514 | 5.514 | 5.514 Mbytes
Step Temp E_pair Volume TotEng Press Density v_cPt v_cAu 
   13200    380.94794    -1146.793     4315.801   -1134.2365   -1151.9939    19.284574          161           95 
   13300    409.07189   -1147.7176    4306.7903    -1134.234     2783.606    19.324921          161           95 
Per MPI rank memory allocation (min/avg/max) = 5.514 | 5.514 | 5.514 Mbytes
Step Temp E_pair Volume TotEng Press Density v_cPt v_cAu 
   13300    409.07189   -1147.7176    4306.7903    -1134.234     2783.606    19.324921          161           95 
   13400    396.88492   -1147.3222    4311.5589   -1134.2404   -1631.2011    19.303548          161           95 
Per MPI rank memory allocation (min/avg/max) = 5.514 | 5.514 | 5.514 Mbytes
Step Temp E_pair Volume TotEng Press Density v_cPt v_cAu 
   13400    396.88492   -1147.3222    4311.5589   -1134.2404   -1631.2011    19.303548          161           95 
   13500    397.98343   -1147.3641    4310.0514   -1134.2461    319.79122    19.310299          161           95 
Per MPI rank memory allocation (min/avg/max) = 5.514 | 5.514 | 5.514 Mbytes
Step Temp E_pair Volume TotEng Press Density v_cPt v_cAu 
   13500    397.98343   -1147.3641    4310.0514   -1134.2461    319.79122    19.310299          161           95 
   13600    417.12025   -1147.9982    4313.3336   -1134.2493   -1319.0659    19.295605          161           95 
Per MPI rank memory allocation (min/avg/max) = 5.514 | 5.514 | 5.514 Mbytes
Step Temp E_pair Volume TotEng Press Density v_cPt v_cAu 
   13600    417.12025   -1147.9982    4313.3336   -1134.2493   -1319.0659    19.295605          161           95 
   13700    388.11282   -1147.0462    4314.5437   -1134.2535   -205.79279    19.290193          161           95 
Per MPI rank memory allocation (min/avg/max) = 5.514 | 5.514 | 5.514 Mbytes
Step Temp E_pair Volume TotEng Press Density v_cPt v_cAu 
   13700    388.11282   -1147.0462    4314.5437   -1134.2535   -205.79279    19.290193          161           95 
   13800     409.1067   -1147.7402     4310.692   -1134.2555   -1598.6076     19.30743          161           95 
Per MPI rank memory allocation (min/avg/max) = 5.514 | 5.514 | 5.514 Mbytes
Step Temp E_pair Volume TotEng Press Density v_cPt v_cAu 
   13800     409.1067   -1147.8654     4310.692   -1134.3807   -1641.7926     19.30743          161           95 
   13900    400.74558   -1147.5924    4300.1762   -1134.3833    1681.6911    19.354644          161           95 
Per MPI rank memory allocation (min/avg/max) = 5.514 | 5.514 | 5.514 Mbytes
Step Temp E_pair Volume TotEng Press Density v_cPt v_cAu 
   13900    400.74558   -1147.5924    4300.1762   -1134.3833    1681.6911    19.354644          161           95 
   14000    389.69401   -1147.2486    4306.0466   -1134.4037    3692.4252    19.328259          161           95 
Per MPI rank memory allocation (min/avg/max) = 5.514 | 5.514 | 5.514 Mbytes
Step Temp E_pair Volume TotEng Press Density v_cPt v_cAu 
   14000    389.69401   -1147.2486    4306.0466   -1134.4037    3692.4252    19.328259          161           95 
   14100    383.30046   -1147.0128     4331.331   -1134.3787   -6467.0813    19.215428          161           95 
Per MPI rank memory allocation (min/avg/max) = 5.514 | 5.514 | 5.514 Mbytes
Step Temp E_pair Volume TotEng Press Density v_cPt v_cAu 
   14100    383.30046   -1147.0128     4331.331   -1134.3787   -6467.0813    19.215428          161           95 
   14200    409.60552   -1147.8933    4313.8089   -1134.3922    1543.6723    19.293479          161           95 
Per MPI rank memory allocation (min/avg/max) = 5.514 | 5.514 | 5.514 Mbytes
Step Temp E_pair Volume TotEng Press Density v_cPt v_cAu 
   14200    409.60552   -1147.8933    4313.8089   -1134.3922    1543.6723    19.293479          161           95 
   14300    414.74792   -1148.0291    4303.9716   -1134.3585    375.95336    19.337577          161           95 
Per MPI rank memory allocation (min/avg/max) = 5.514 | 5.514 | 5.514 Mbytes
Step Temp E_pair Volume TotEng Press Density v_cPt v_cAu 
   14300    414.74792   -1148.0291    4303.9716   -1134.3585    375.95336    19.337577          161           95 
   14400    397.86793   -1147.4673    4303.8244   -1134.3531    130.15921    19.338238          161           95 
Per MPI rank memory allocation (min/avg/max) = 5.514 | 5.514 | 5.514 Mbytes
Step Temp E_pair Volume TotEng Press Density v_cPt v_cAu 
   14400    397.86793   -1147.4673    4303.8244   -1134.3531    130.15921    19.338238          161           95 
   14500    405.27772   -1147.7196    4310.7851   -1134.3611    1173.3021    19.307013          161           95 
Per MPI rank memory allocation (min/avg/max) = 5.514 | 5.514 | 5.514 Mbytes
Step Temp E_pair Volume TotEng Press Density v_cPt v_cAu 
   14500    405.27772   -1147.7196    4310.7851   -1134.3611    1173.3021    19.307013          161           95 
   14600     374.5675   -1146.6869    4319.5885   -1134.3406   -4136.5875    19.267665          161           95 
Per MPI rank memory allocation (min/avg/max) = 5.514 | 5.514 | 5.514 Mbytes
Step Temp E_pair Volume TotEng Press Density v_cPt v_cAu 
   14600     374.5675   -1146.6869    4319.5885   -1134.3406   -4136.5875    19.267665          161           95 
   14700    412.87158   -1147.9276    4295.9492   -1134.3188    5019.8864    19.373689          161           95 
Per MPI rank memory allocation (min/avg/max) = 5.514 | 5.514 | 5.514 Mbytes
Step Temp E_pair Volume TotEng Press Density v_cPt v_cAu 
   14700    412.87158   -1147.9276    4295.9492   -1134.3188    5019.8864    19.373689          161           95 
   14800    414.31119   -1147.9903    4311.7366   -1134.3341   -476.60816    19.302752          161           95 
Per MPI rank memory allocation (min/avg/max) = 5.514 | 5.514 | 5.514 Mbytes
Step Temp E_pair Volume TotEng Press Density v_cPt v_cAu 
   14800    414.31119   -1147.9903    4311.7366   -1134.3341   -476.60816    19.302752          161           95 
   14900    406.42443   -1147.6671    4329.8052   -1134.2708   -8723.1567      19.2222          161           95 
Per MPI rank memory allocation (min/avg/max) = 5.514 | 5.514 | 5.514 Mbytes
Step Temp E_pair Volume TotEng Press Density v_cPt v_cAu 
   14900    406.42443   -1147.6671    4329.8052   -1134.2708   -8723.1567      19.2222          161           95 
   15000    403.08882   -1147.5403    4292.7942    -1134.254    6815.3658    19.387927          161           95 
Per MPI rank memory allocation (min/avg/max) = 5.514 | 5.514 | 5.514 Mbytes
Step Temp E_pair Volume TotEng Press Density v_cPt v_cAu 
   15000    403.08882   -1147.5403    4292.7942    -1134.254    6815.3658    19.387927          161           95 
   15100    382.06782   -1146.8531    4301.3513   -1134.2596     5812.803    19.349357          161           95 
Per MPI rank memory allocation (min/avg/max) = 5.514 | 5.514 | 5.514 Mbytes
Step Temp E_pair Volume TotEng Press Density v_cPt v_cAu 
   15100    382.06782   -1146.8531    4301.3513   -1134.2596     5812.803    19.349357          161           95 
   15200    392.42809   -1147.0884    4340.2795   -1134.1534   -10871.939    19.175812          161           95 
Per MPI rank memory allocation (min/avg/max) = 5.514 | 5.514 | 5.514 Mbytes
Step Temp E_pair Volume TotEng Press Density v_cPt v_cAu 
   15200    392.42809   -1147.0884    4340.2795   -1134.1534   -10871.939    19.175812          161           95 
   15300    406.29099   -1147.5757    4303.3019   -1134.1838    2953.6839    19.340586          161           95 
Per MPI rank memory allocation (min/avg/max) = 5.514 | 5.514 | 5.514 Mbytes
Step Temp E_pair Volume TotEng Press Density v_cPt v_cAu 
   15300    406.29099   -1147.5757    4303.3019   -1134.1838    2953.6839    19.340586          161           95 
   15400    423.06325    -1148.028    4289.0984   -1134.0833    8364.3571    19.404634          161           95 
Per MPI rank memory allocation (min/avg/max) = 5.514 | 5.514 | 5.514 Mbytes
Step Temp E_pair Volume TotEng Press Density v_cPt v_cAu 
   15400    423.06325    -1148.028    4289.0984   -1134.0833    8364.3571    19.404634          161           95 
   15500    379.30901   -1146.5393    4335.8192   -1134.0368   -8137.0363    19.195538          161           95 
Per MPI rank memory allocation (min/avg/max) = 5.514 | 5.514 | 5.514 Mbytes
Step Temp E_pair Volume TotEng Press Density v_cPt v_cAu 
   15500    379.30901   -1146.5393    4335.8192   -1134.0368   -8137.0363    19.195538          161           95 
   15600    383.00963   -1146.6459    4324.6328   -1134.0214   -3329.6242    19.245191          161           95 
Per MPI rank memory allocation (min/avg/max) = 5.514 | 5.514 | 5.514 Mbytes
Step Temp E_pair Volume TotEng Press Density v_cPt v_cAu 
   15600    383.00963   -1146.6459    4324.6328   -1134.0214   -3329.6242    19.245191          161           95 
   15700    411.03219   -1147.4304     4284.689   -1133.8822    10654.226    19.424603          161           95 
Per MPI rank memory allocation (min/avg/max) = 5.514 | 5.514 | 5.514 Mbytes
Step Temp E_pair Volume TotEng Press Density v_cPt v_cAu 
   15700    411.03219   -1147.4304     4284.689   -1133.8822    10654.226    19.424603          161           95 
   15800    412.37281    -1147.475    4316.0023   -1133.8826   -2427.1806    19.283674          161           95 
Per MPI rank memory allocation (min/avg/max) = 5.514 | 5.514 | 5.514 Mbytes
Step Temp E_pair Volume TotEng Press Density v_cPt v_cAu 
   15800    412.37281    -1147.475    4316.0023   -1133.8826   -2427.1806    19.283674          161           95 
   15900    419.49821   -1147.6053    4336.2008   -1133.7781    -10875.69    19.193849          161           95 
Per MPI rank memory allocation (min/avg/max) = 5.514 | 5.514 | 5.514 Mbytes
Step Temp E_pair Volume TotEng Press Density v_cPt v_cAu 
   15900    419.49821   -1147.6053    4336.2008   -1133.7781    -10875.69    19.193849          161           95 
   16000    402.84009   -1147.0073    4288.6229   -1133.7291    10622.498    19.406785          161           95 
Per MPI rank memory allocation (min/avg/max) = 5.514 | 5.514 | 5.514 Mbytes
Step Temp E_pair Volume TotEng Press Density v_cPt v_cAu 
   16000    402.84009   -1147.0073    4288.6229   -1133.7291    10622.498    19.406785          161           95 
   16100    403.80693   -1147.0345    4306.3498   -1133.7245    1780.4431    19.326898          161           95 
Per MPI rank memory allocation (min/avg/max) = 5.514 | 5.514 | 5.514 Mbytes
Step Temp E_pair Volume TotEng Press Density v_cPt v_cAu 
   16100    403.80693   -1147.0345    4306.3498   -1133.7245    1780.4431    19.326898          161           95 
   16200    410.49816   -1147.1102    4337.5292   -1133.5796   -10044.254     19.18797          161           95 
Per MPI rank memory allocation (min/avg/max) = 5.514 | 5.514 | 5.514 Mbytes
Step Temp E_pair Volume TotEng Press Density v_cPt v_cAu 
   16200    410.49816   -1144.6877    4337.5292   -1131.1571   -9101.7054    19.188689          160           96 
   16300    411.92594   -1144.6935    4302.6699   -1131.1159    7113.5969    19.344151          160           96 
Per MPI rank memory allocation (min/avg/max) = 5.514 | 5.514 | 5.514 Mbytes
Step Temp E_pair Volume TotEng Press Density v_cPt v_cAu 
   16300    411.92594   -1144.6935    4302.6699   -1131.1159    7113.5969    19.344151          160           96 
   16400    404.09232   -1144.3979    4310.3721   -1131.0785    2010.0617    19.309585          160           96 
Per MPI rank memory allocation (min/avg/max) = 5.514 | 5.514 | 5.514 Mbytes
Step Temp E_pair Volume TotEng Press Density v_cPt v_cAu 
   16400    404.09232   -1144.3979    4310.3721   -1131.0785    2010.0617    19.309585          160           96 
   16500     388.7818   -1143.8185    4331.3335   -1131.0037   -4231.0451    19.216137          160           96 
Per MPI rank memory allocation (min/avg/max) = 5.514 | 5.514 | 5.514 Mbytes
Step Temp E_pair Volume TotEng Press Density v_cPt v_cAu 
   16500     388.7818   -1143.8185    4331.3335   -1131.0037   -4231.0451    19.216137          160           96 
   16600    414.44215   -1144.6387    4314.7033   -1130.9782    1686.5374    19.290202          160           96 
Per MPI rank memory allocation (min/avg/max) = 5.514 | 5.514 | 5.514 Mbytes
Step Temp E_pair Volume TotEng Press Density v_cPt v_cAu 
   16600    414.44215   -1144.6387    4314.7033   -1130.9782    1686.5374    19.290202          160           96 
   16700    403.29236   -1144.2271    4308.7546    -1130.934    3781.9447    19.316834          160           96 
Per MPI rank memory allocation (min/avg/max) = 5.514 | 5.514 | 5.514 Mbytes
Step Temp E_pair Volume TotEng Press Density v_cPt v_cAu 
   16700    403.29236   -1144.2271    4308.7546    -1130.934    3781.9447    19.316834          160           96 
   16800    395.15115   -1143.9263    4322.8842   -1130.9016   -986.08478    19.253696          160           96 
Per MPI rank memory allocation (min/avg/max) = 5.514 | 5.514 | 5.514 Mbytes
Step Temp E_pair Volume TotEng Press Density v_cPt v_cAu 
   16800    395.15115   -1143.9263    4322.8842   -1130.9016   -986.08478    19.253696          160           96 
   16900    426.60125   -1144.9579    4319.3716   -1130.8966   -3035.8604    19.269354          160           96 
Per MPI rank memory allocation (min/avg/max) = 5.514 | 5.514 | 5.514 Mbytes
Step Temp E_pair Volume TotEng Press Density v_cPt v_cAu 
   16900    426.60125   -1144.9579    4319.3716   -1130.8966   -3035.8604    19.269354          160           96 
   17000    416.32515   -1144.5949    4302.7207   -1130.8722    6294.2139    19.343923          160           96 
Per MPI rank memory allocation (min/avg/max) = 5.514 | 5.514 | 5.514 Mbytes
Step Temp E_pair Volume TotEng Press Density v_cPt v_cAu 
   17000    416.32515   -1144.5949    4302.7207   -1130.8722    6294.2139    19.343923          160           96 
   17100    440.88115   -1145.4257    4330.5839   -1130.8937   -6274.3981    19.219463          160           96 
Per MPI rank memory allocation (min/avg/max) = 5.514 | 5.514 | 5.514 Mbytes
Step Temp E_pair Volume TotEng Press Density v_cPt v_cAu 
   17100    440.88115   -1145.4257    4330.5839   -1130.8937   -6274.3981    19.219463          160           96 
   17200    391.67895   -1143.8242    4325.6347   -1130.9139   -4187.3659    19.241453          160           96 
Per MPI rank memory allocation (min/avg/max) = 5.514 | 5.514 | 5.514 Mbytes
Step Temp E_pair Volume TotEng Press Density v_cPt v_cAu 
   17200    391.67895   -1143.8242    4325.6347   -1130.9139   -4187.3659    19.241453          160           96 
   17300    421.59808   -1144.7768      4289.76   -1130.8803    11737.846    19.402367          160           96 
Per MPI rank memory allocation (min/avg/max) = 5.514 | 5.514 | 5.514 Mbytes
Step Temp E_pair Volume TotEng Press Density v_cPt v_cAu 
   17300    421.59808   -1144.7768      4289.76   -1130.8803    11737.846    19.402367          160           96 
   17400    419.67179   -1144.8159    4326.1864    -1130.983   -5290.4834    19.238999          160           96 
Per MPI rank memory allocation (min/avg/max) = 5.514 | 5.514 | 5.514 Mbytes
Step Temp E_pair Volume TotEng Press Density v_cPt v_cAu 
   17400    419.67179   -1144.8159    4326.1864    -1130.983   -5290.4834    19.238999          160           96 
   17500    399.20339   -1144.1668    4330.7493   -1131.0085   -5494.4266    19.218729          160           96 
Per MPI rank memory allocation (min/avg/max) = 5.514 | 5.514 | 5.514 Mbytes
Step Temp E_pair Volume TotEng Press Density v_cPt v_cAu 
   17500    399.20339   -1144.1668    4330.7493   -1131.0085   -5494.4266    19.218729          160           96 
   17600    413.48289   -1144.6348    4296.1459   -1131.0059     9944.139    19.373527          160           96 
Per MPI rank memory allocation (min/avg/max) = 5.514 | 5.514 | 5.514 Mbytes
Step Temp E_pair Volume TotEng Press Density v_cPt v_cAu 
   17600    413.48289   -1144.6348    4296.1459   -1131.0059     9944.139    19.373527          160           96 
   17700      406.303   -1144.5176    4328.9649   -1131.1253   -5221.3759    19.226651          160           96 
Per MPI rank memory allocation (min/avg/max) = 5.514 | 5.514 | 5.514 Mbytes
Step Temp E_pair Volume TotEng Press Density v_cPt v_cAu 
   17700      406.303   -1144.5176    4328.9649   -1131.1253   -5221.3759    19.226651          160           96 
   17800     426.5878    -1145.266    4330.6113    -1131.205    -5673.558    19.219341          160           96 
Per MPI rank memory allocation (min/avg/max) = 5.514 | 5.514 | 5.514 Mbytes
Step Temp E_pair Volume TotEng Press Density v_cPt v_cAu 
   17800     426.5878    -1145.266    4330.6113    -1131.205    -5673.558    19.219341          160           96 
   17900    392.27726   -1144.1822    4294.6368   -1131.2522    9869.5775    19.380334          160           96 
Per MPI rank memory allocation (min/avg/max) = 5.514 | 5.514 | 5.514 Mbytes
Step Temp E_pair Volume TotEng Press Density v_cPt v_cAu 
   17900    392.27726   -1144.1822    4294.6368   -1131.2522    9869.5775    19.380334          160           96 
   18000    400.77118   -1144.6123    4321.9387   -1131.4024   -3619.3802    19.257908          160           96 
Per MPI rank memory allocation (min/avg/max) = 5.514 | 5.514 | 5.514 Mbytes
Step Temp E_pair Volume TotEng Press Density v_cPt v_cAu 
   18000    400.77118   -1144.6123    4321.9387   -1131.4024   -3619.3802    19.257908          160           96 
   18100     409.3607   -1145.0185    4325.9191   -1131.5254    -4972.071    19.240188          160           96 
Per MPI rank memory allocation (min/avg/max) = 5.514 | 5.514 | 5.514 Mbytes
Step Temp E_pair Volume TotEng Press Density v_cPt v_cAu 
   18100     409.3607   -1145.0185    4325.9191   -1131.5254    -4972.071    19.240188          160           96 
   18200    413.63316   -1145.2657    4300.3297   -1131.6318    5840.2072    19.354678          160           96 
Per MPI rank memory allocation (min/avg/max) = 5.514 | 5.514 | 5.514 Mbytes
Step Temp E_pair Volume TotEng Press Density v_cPt v_cAu 
   18200    413.63316   -1145.2657    4300.3297   -1131.6318    5840.2072    19.354678          160           96 
   18300    407.00247    -1145.228     4319.796   -1131.8126   -1719.0955     19.26746          160           96 
Per MPI rank memory allocation (min/avg/max) = 5.514 | 5.514 | 5.514 Mbytes
Step Temp E_pair Volume TotEng Press Density v_cPt v_cAu 
   18300    407.00247    -1145.228     4319.796   -1131.8126   -1719.0955     19.26746          160           96 
   18400    363.78055   -1143.9411    4327.2585   -1131.9504   -2835.2513    19.234233          160           96 
Per MPI rank memory allocation (min/avg/max) = 5.514 | 5.514 | 5.514 Mbytes
Step Temp E_pair Volume TotEng Press Density v_cPt v_cAu 
   18400    363.78055   -1143.9411    4327.2585   -1131.9504   -2835.2513    19.234233          160           96 
   18500    402.77289   -1145.3823    4304.7309   -1132.1064    4172.6026     19.33489          160           96 
Per MPI rank memory allocation (min/avg/max) = 5.514 | 5.514 | 5.514 Mbytes
Step Temp E_pair Volume TotEng Press Density v_cPt v_cAu 
   18500    402.77289   -1145.3823    4304.7309   -1132.1064    4172.6026     19.33489          160           96 
   18600    379.61383   -1144.7749    4308.6778   -1132.2623     1034.126    19.317178          160           96 
Per MPI rank memory allocation (min/avg/max) = 5.514 | 5.514 | 5.514 Mbytes
Step Temp E_pair Volume TotEng Press Density v_cPt v_cAu 
   18600    379.61383   -1144.7749    4308.6778   -1132.2623     1034.126    19.317178          160           96 
   18700    407.90979   -1145.8392     4320.814   -1132.3939   -4754.2627    19.262921          160           96 
Per MPI rank memory allocation (min/avg/max) = 5.514 | 5.514 | 5.514 Mbytes
Step Temp E_pair Volume TotEng Press Density v_cPt v_cAu 
   18700    407.90979   -1145.8392     4320.814   -1132.3939   -4754.2627    19.262921          160           96 
   18800     358.6965    -1144.349    4306.3652   -1132.5259    3779.7738    19.327552          160           96 
Per MPI rank memory allocation (min/avg/max) = 5.514 | 5.514 | 5.514 Mbytes
Step Temp E_pair Volume TotEng Press Density v_cPt v_cAu 
   18800     358.6965    -1144.349    4306.3652   -1132.5259    3779.7738    19.327552          160           96 
   18900    379.92628   -1145.1729    4311.7675     -1132.65    2009.3213    19.303336          160           96 
Per MPI rank memory allocation (min/avg/max) = 5.514 | 5.514 | 5.514 Mbytes
Step Temp E_pair Volume TotEng Press Density v_cPt v_cAu 
   18900    379.92628   -1145.1729    4311.7675     -1132.65    2009.3213    19.303336          160           96 
   19000     385.9292   -1145.4743    4323.1901   -1132.7535   -3379.3726    19.252334          160           96 
Per MPI rank memory allocation (min/avg/max) = 5.514 | 5.514 | 5.514 Mbytes
Step Temp E_pair Volume TotEng Press Density v_cPt v_cAu 
   19000     385.9292   -1145.4743    4323.1901   -1132.7535   -3379.3726    19.252334          160           96 
   19100    385.95962   -1145.5868    4309.2456    -1132.865   -153.80632    19.314633          160           96 
Per MPI rank memory allocation (min/avg/max) = 5.514 | 5.514 | 5.514 Mbytes
Step Temp E_pair Volume TotEng Press Density v_cPt v_cAu 
   19100    385.95962   -1145.5868    4309.2456    -1132.865   -153.80632    19.314633          160           96 
   19200     400.2432   -1146.1263    4297.6232   -1132.9337    3616.4353    19.366867          160           96 
Per MPI rank memory allocation (min/avg/max) = 5.514 | 5.514 | 5.514 Mbytes
Step Temp E_pair Volume TotEng Press Density v_cPt v_cAu 
   19200     400.2432   -1146.1263    4297.6232   -1132.9337    3616.4353    19.366867          160           96 
   19300    369.64004   -1145.2072     4316.264   -1133.0234   -1495.8677    19.283227          160           96 
Per MPI rank memory allocation (min/avg/max) = 5.514 | 5.514 | 5.514 Mbytes
Step Temp E_pair Volume TotEng Press Density v_cPt v_cAu 
   19300    369.64004   -1145.2072     4316.264   -1133.0234   -1495.8677    19.283227          160           96 
   19400     387.5705   -1145.8595    4317.3561   -1133.0846   -2995.1032    19.278349          160           96 
Per MPI rank memory allocation (min/avg/max) = 5.514 | 5.514 | 5.514 Mbytes
Step Temp E_pair Volume TotEng Press Density v_cPt v_cAu 
   19400     387.5705   -1145.8595    4317.3561   -1133.0846   -2995.1032    19.278349          160           96 
   19500    377.86088   -1145.5685    4297.0582   -1133.1137    6121.7369    19.369414          160           96 
Per MPI rank memory allocation (min/avg/max) = 5.514 | 5.514 | 5.514 Mbytes
Step Temp E_pair Volume TotEng Press Density v_cPt v_cAu 
   19500    377.86088   -1145.5685    4297.0582   -1133.1137    6121.7369    19.369414          160           96 
   19600    372.56156    -1145.446    4317.6116   -1133.1659   -3416.5787    19.277208          160           96 
Per MPI rank memory allocation (min/avg/max) = 5.514 | 5.514 | 5.514 Mbytes
Step Temp E_pair Volume TotEng Press Density v_cPt v_cAu 
   19600    372.56156    -1145.446    4317.6116   -1133.1659   -3416.5787    19.277208          160           96 
   19700     388.4509   -1145.9973    4316.6535   -1133.1934   -4159.1417    19.281487          160           96 
Per MPI rank memory allocation (min/avg/max) = 5.514 | 5.514 | 5.514 Mbytes
Step Temp E_pair Volume TotEng Press Density v_cPt v_cAu 
   19700     388.4509   -1145.9973    4316.6535   -1133.1934   -4159.1417    19.281487          160           96 
   19800    378.73409   -1145.6607    4288.1514   -1133.1772    8558.2828    19.409646          160           96 
Per MPI rank memory allocation (min/avg/max) = 5.514 | 5.514 | 5.514 Mbytes
Step Temp E_pair Volume TotEng Press Density v_cPt v_cAu 
   19800    378.73409   -1145.6607    4288.1514   -1133.1772    8558.2828    19.409646          160           96 
   19900    372.95896   -1145.5165    4313.2295   -1133.2233   -1179.1316    19.296793          160           96 
Per MPI rank memory allocation (min/avg/max) = 5.514 | 5.514 | 5.514 Mbytes
Step Temp E_pair Volume TotEng Press Density v_cPt v_cAu 
   19900    372.95896   -1145.5165    4313.2295   -1133.2233   -1179.1316    19.296793          160           96 
   20000    398.00613   -1146.2934    4330.2785   -1133.1746   -9505.5264    19.220819          160           96 
Per MPI rank memory allocation (min/avg/max) = 5.514 | 5.514 | 5.514 Mbytes
Step Temp E_pair Volume TotEng Press Density v_cPt v_cAu 
   20000    398.00613   -1143.8041    4330.2785   -1130.6852   -8228.0665    19.221538          159           97 
   20100    380.87335    -1143.202    4295.2166   -1130.6479    7829.7743    19.378444          159           97 
Per MPI rank memory allocation (min/avg/max) = 5.514 | 5.514 | 5.514 Mbytes
Step Temp E_pair Volume TotEng Press Density v_cPt v_cAu 
   20100    380.87335    -1143.202    4295.2166   -1130.6479    7829.7743    19.378444          159           97 
   20200    384.14371   -1143.3221    4313.3925   -1130.6603    1580.7118    19.296786          159           97 
Per MPI rank memory allocation (min/avg/max) = 5.514 | 5.514 | 5.514 Mbytes
Step Temp E_pair Volume TotEng Press Density v_cPt v_cAu 
   20200    384.14371   -1143.3221    4313.3925   -1130.6603    1580.7118    19.296786          159           97 
   20300    381.09522   -1143.1055    4339.0936   -1130.5441   -9325.3886    19.182489          159           97 
Per MPI rank memory allocation (min/avg/max) = 5.514 | 5.514 | 5.514 Mbytes
Step Temp E_pair Volume TotEng Press Density v_cPt v_cAu 
[...]
  394600    389.30958   -846.37264    4647.2688   -833.54048   -1692.6212    17.994249           34          222 
  394700    409.08913   -846.95947    4638.1764   -833.47534    1494.3268    18.029524           34          222 
Per MPI rank memory allocation (min/avg/max) = 5.514 | 5.514 | 5.514 Mbytes
Step Temp E_pair Volume TotEng Press Density v_cPt v_cAu 
  394700    409.08913   -846.95947    4638.1764   -833.47534    1494.3268    18.029524           34          222 
  394800    402.31553   -846.67606     4648.928    -833.4152    -4385.751    17.987827           34          222 
Per MPI rank memory allocation (min/avg/max) = 5.514 | 5.514 | 5.514 Mbytes
Step Temp E_pair Volume TotEng Press Density v_cPt v_cAu 
  394800    402.31553   -846.67606     4648.928    -833.4152    -4385.751    17.987827           34          222 
  394900     392.8679   -846.31465    4632.9797    -833.3652    1905.2134    18.049747           34          222 
Per MPI rank memory allocation (min/avg/max) = 5.514 | 5.514 | 5.514 Mbytes
Step Temp E_pair Volume TotEng Press Density v_cPt v_cAu 
  394900     392.8679   -846.31465    4632.9797    -833.3652    1905.2134    18.049747           34          222 
  395000    405.18675   -846.66167    4632.7585   -833.30617    5252.3526    18.050609           34          222 
Per MPI rank memory allocation (min/avg/max) = 5.514 | 5.514 | 5.514 Mbytes
Step Temp E_pair Volume TotEng Press Density v_cPt v_cAu 
  395000    405.18675   -846.66167    4632.7585   -833.30617    5252.3526    18.050609           34          222 
  395100    400.50245   -846.37841    4671.2881   -833.17731   -10357.936    17.901725           34          222 
Per MPI rank memory allocation (min/avg/max) = 5.514 | 5.514 | 5.514 Mbytes
Step Temp E_pair Volume TotEng Press Density v_cPt v_cAu 
  395100    400.50245   -846.37841    4671.2881   -833.17731   -10357.936    17.901725           34          222 
  395200    404.42943   -846.51691    4628.3494   -833.18637    4625.1064    18.067805           34          222 
Per MPI rank memory allocation (min/avg/max) = 5.514 | 5.514 | 5.514 Mbytes
Step Temp E_pair Volume TotEng Press Density v_cPt v_cAu 
  395200    404.42943   -846.51691    4628.3494   -833.18637    4625.1064    18.067805           34          222 
  395300    403.33677   -846.35989    4621.2747   -833.06537     6660.769    18.095465           34          222 
Per MPI rank memory allocation (min/avg/max) = 5.514 | 5.514 | 5.514 Mbytes
Step Temp E_pair Volume TotEng Press Density v_cPt v_cAu 
  395300    403.33677   -846.35989    4621.2747   -833.06537     6660.769    18.095465           34          222 
  395400    386.99772   -845.68885    4673.6035   -832.93289   -7907.5051    17.892856           34          222 
Per MPI rank memory allocation (min/avg/max) = 5.514 | 5.514 | 5.514 Mbytes
Step Temp E_pair Volume TotEng Press Density v_cPt v_cAu 
  395400    386.99772   -845.68885    4673.6035   -832.93289   -7907.5051    17.892856           34          222 
  395500    404.61831   -846.20028     4658.886   -832.86352   -1622.9564     17.94938           34          222 
Per MPI rank memory allocation (min/avg/max) = 5.514 | 5.514 | 5.514 Mbytes
Step Temp E_pair Volume TotEng Press Density v_cPt v_cAu 
  395500    404.61831   -846.20028     4658.886   -832.86352   -1622.9564     17.94938           34          222 
  395600    436.24841   -847.06775    4630.4024   -832.68842    3017.1866    18.059794           34          222 
Per MPI rank memory allocation (min/avg/max) = 5.514 | 5.514 | 5.514 Mbytes
Step Temp E_pair Volume TotEng Press Density v_cPt v_cAu 
  395600    436.24841   -847.06775    4630.4024   -832.68842    3017.1866    18.059794           34          222 
  395700    387.31376   -845.34236    4638.8136   -832.57598    2920.4486    18.027048           34          222 
Per MPI rank memory allocation (min/avg/max) = 5.514 | 5.514 | 5.514 Mbytes
Step Temp E_pair Volume TotEng Press Density v_cPt v_cAu 
  395700    387.31376   -845.34236    4638.8136   -832.57598    2920.4486    18.027048           34          222 
  395800    423.25307   -846.38933    4652.8773   -832.43834   -2682.9604     17.97256           34          222 
Per MPI rank memory allocation (min/avg/max) = 5.514 | 5.514 | 5.514 Mbytes
Step Temp E_pair Volume TotEng Press Density v_cPt v_cAu 
  395800    423.25307   -846.38933    4652.8773   -832.43834   -2682.9604     17.97256           34          222 
  395900    428.02386   -846.42352    4641.0316   -832.31528   -1308.0143    18.018432           34          222 
Per MPI rank memory allocation (min/avg/max) = 5.514 | 5.514 | 5.514 Mbytes
Step Temp E_pair Volume TotEng Press Density v_cPt v_cAu 
  395900    428.02386   -846.42352    4641.0316   -832.31528   -1308.0143    18.018432           34          222 
  396000    388.63505   -844.99579    4634.8634   -832.18586    7652.5712    18.042412           34          222 
Per MPI rank memory allocation (min/avg/max) = 5.514 | 5.514 | 5.514 Mbytes
Step Temp E_pair Volume TotEng Press Density v_cPt v_cAu 
  396000    388.63505   -844.99579    4634.8634   -832.18586    7652.5712    18.042412           34          222 
  396100    408.22621   -845.48027    4674.5593   -832.02459    -6475.985    17.889197           34          222 
Per MPI rank memory allocation (min/avg/max) = 5.514 | 5.514 | 5.514 Mbytes
Step Temp E_pair Volume TotEng Press Density v_cPt v_cAu 
  396100    408.22621   -845.48027    4674.5593   -832.02459    -6475.985    17.889197           34          222 
  396200    425.50406   -845.91005    4660.8193   -831.88486   -3234.3308    17.941934           34          222 
Per MPI rank memory allocation (min/avg/max) = 5.514 | 5.514 | 5.514 Mbytes
Step Temp E_pair Volume TotEng Press Density v_cPt v_cAu 
  396200    425.50406   -845.91005    4660.8193   -831.88486   -3234.3308    17.941934           34          222 
  396300    427.80493   -845.73062    4618.1169    -831.6296    8536.8599    18.107838           34          222 
Per MPI rank memory allocation (min/avg/max) = 5.514 | 5.514 | 5.514 Mbytes
Step Temp E_pair Volume TotEng Press Density v_cPt v_cAu 
  396300    427.80493   -845.73062    4618.1169    -831.6296    8536.8599    18.107838           34          222 
  396400    443.57671   -846.10826    4643.2115   -831.48738   -825.28094    18.009973           34          222 
Per MPI rank memory allocation (min/avg/max) = 5.514 | 5.514 | 5.514 Mbytes
Step Temp E_pair Volume TotEng Press Density v_cPt v_cAu 
  396400    443.57671   -846.10826    4643.2115   -831.48738   -825.28094    18.009973           34          222 
  396500    422.97368   -845.16948    4671.3786    -831.2277   -2398.1601    17.901378           34          222 
Per MPI rank memory allocation (min/avg/max) = 5.514 | 5.514 | 5.514 Mbytes
Step Temp E_pair Volume TotEng Press Density v_cPt v_cAu 
  396500    422.97368   -845.16948    4671.3786    -831.2277   -2398.1601    17.901378           34          222 
  396600    407.55471   -844.48703    4669.6991   -831.05348    -4003.591    17.907816           34          222 
Per MPI rank memory allocation (min/avg/max) = 5.514 | 5.514 | 5.514 Mbytes
Step Temp E_pair Volume TotEng Press Density v_cPt v_cAu 
  396600    407.55471   -844.48703    4669.6991   -831.05348    -4003.591    17.907816           34          222 
  396700    438.13836   -845.33536    4637.5548   -830.89373    3901.0083    18.031941           34          222 
Per MPI rank memory allocation (min/avg/max) = 5.514 | 5.514 | 5.514 Mbytes
Step Temp E_pair Volume TotEng Press Density v_cPt v_cAu 
  396700    438.13836   -845.33536    4637.5548   -830.89373    3901.0083    18.031941           34          222 
  396800    444.04613   -845.37624    4643.0375   -830.73989    3263.2199    18.010648           34          222 
Per MPI rank memory allocation (min/avg/max) = 5.514 | 5.514 | 5.514 Mbytes
Step Temp E_pair Volume TotEng Press Density v_cPt v_cAu 
  396800    444.04613   -845.37624    4643.0375   -830.73989    3263.2199    18.010648           34          222 
  396900    433.95333   -844.81195    4673.8318   -830.50827   -5487.9539    17.891982           34          222 
Per MPI rank memory allocation (min/avg/max) = 5.514 | 5.514 | 5.514 Mbytes
Step Temp E_pair Volume TotEng Press Density v_cPt v_cAu 
  396900    433.95333   -844.81195    4673.8318   -830.50827   -5487.9539    17.891982           34          222 
  397000    434.51937   -844.70737    4649.7218   -830.38503    4026.1377    17.984756           34          222 
Per MPI rank memory allocation (min/avg/max) = 5.514 | 5.514 | 5.514 Mbytes
Step Temp E_pair Volume TotEng Press Density v_cPt v_cAu 
  397000    434.51937   -844.70737    4649.7218   -830.38503    4026.1377    17.984756           34          222 
  397100     467.3695   -845.65964      4645.87   -830.25452    1566.7104    17.999667           34          222 
Per MPI rank memory allocation (min/avg/max) = 5.514 | 5.514 | 5.514 Mbytes
Step Temp E_pair Volume TotEng Press Density v_cPt v_cAu 
  397100     467.3695   -845.65964      4645.87   -830.25452    1566.7104    17.999667           34          222 
  397200    438.12588    -844.6339    4664.0608   -830.19268    -3023.427    17.929465           34          222 
Per MPI rank memory allocation (min/avg/max) = 5.514 | 5.514 | 5.514 Mbytes
Step Temp E_pair Volume TotEng Press Density v_cPt v_cAu 
  397200    438.12588    -844.6339    4664.0608   -830.19268    -3023.427    17.929465           34          222 
  397300    433.51724   -844.44699      4656.24   -830.15768    2059.9836     17.95958           34          222 
Per MPI rank memory allocation (min/avg/max) = 5.514 | 5.514 | 5.514 Mbytes
Step Temp E_pair Volume TotEng Press Density v_cPt v_cAu 
  397300    433.51724   -844.44699      4656.24   -830.15768    2059.9836     17.95958           34          222 
  397400    448.41644    -844.9182    4652.7355    -830.1378   -148.44158    17.973107           34          222 
Per MPI rank memory allocation (min/avg/max) = 5.514 | 5.514 | 5.514 Mbytes
Step Temp E_pair Volume TotEng Press Density v_cPt v_cAu 
  397400    448.41644    -844.9182    4652.7355    -830.1378   -148.44158    17.973107           34          222 
  397500    463.52207   -845.44257    4654.7302   -830.16427   -2912.6603    17.965405           34          222 
Per MPI rank memory allocation (min/avg/max) = 5.514 | 5.514 | 5.514 Mbytes
Step Temp E_pair Volume TotEng Press Density v_cPt v_cAu 
  397500    463.52207   -845.44257    4654.7302   -830.16427   -2912.6603    17.965405           34          222 
  397600    418.75675   -844.03815    4648.0963   -830.23537    5902.3051    17.991046           34          222 
Per MPI rank memory allocation (min/avg/max) = 5.514 | 5.514 | 5.514 Mbytes
Step Temp E_pair Volume TotEng Press Density v_cPt v_cAu 
  397600    418.75675   -841.59909    4648.0963   -827.79631    6613.4135    17.991716           33          223 
  397700    436.54092    -842.2725    4679.7094   -827.88353   -4857.0258    17.870176           33          223 
Per MPI rank memory allocation (min/avg/max) = 5.514 | 5.514 | 5.514 Mbytes
Step Temp E_pair Volume TotEng Press Density v_cPt v_cAu 
  397700    436.54092    -842.2725    4679.7094   -827.88353   -4857.0258    17.870176           33          223 
  397800     435.5335   -842.42982     4662.694   -828.07406   -1283.9664    17.935389           33          223 
Per MPI rank memory allocation (min/avg/max) = 5.514 | 5.514 | 5.514 Mbytes
Step Temp E_pair Volume TotEng Press Density v_cPt v_cAu 
  397800     435.5335   -842.42982     4662.694   -828.07406   -1283.9664    17.935389           33          223 
  397900    457.76794   -843.31296    4634.3169   -828.22432    7150.2007    18.045212           33          223 
Per MPI rank memory allocation (min/avg/max) = 5.514 | 5.514 | 5.514 Mbytes
Step Temp E_pair Volume TotEng Press Density v_cPt v_cAu 
  397900    457.76794   -843.31296    4634.3169   -828.22432    7150.2007    18.045212           33          223 
  398000    420.79534   -842.44457    4666.6358    -828.5746    699.68876    17.920239           33          223 
Per MPI rank memory allocation (min/avg/max) = 5.514 | 5.514 | 5.514 Mbytes
Step Temp E_pair Volume TotEng Press Density v_cPt v_cAu 
  398000    420.79534   -842.44457    4666.6358    -828.5746    699.68876    17.920239           33          223 
  398100    372.03907   -841.05418    4701.5899   -828.79127   -8590.6332    17.787011           33          223 
Per MPI rank memory allocation (min/avg/max) = 5.514 | 5.514 | 5.514 Mbytes
Step Temp E_pair Volume TotEng Press Density v_cPt v_cAu 
  398100    372.03907   -841.05418    4701.5899   -828.79127   -8590.6332    17.787011           33          223 
  398200    453.54198   -844.20251    4655.6196   -829.25316   -403.37659    17.962642           33          223 
Per MPI rank memory allocation (min/avg/max) = 5.514 | 5.514 | 5.514 Mbytes
Step Temp E_pair Volume TotEng Press Density v_cPt v_cAu 
  398200    453.54198   -844.20251    4655.6196   -829.25316   -403.37659    17.962642           33          223 
  398300    442.50377   -843.98411     4611.813   -829.39859    9132.4022    18.133266           33          223 
Per MPI rank memory allocation (min/avg/max) = 5.514 | 5.514 | 5.514 Mbytes
Step Temp E_pair Volume TotEng Press Density v_cPt v_cAu 
  398300    442.50377   -843.98411     4611.813   -829.39859    9132.4022    18.133266           33          223 
  398400    407.22812   -843.13175    4648.3827   -829.70896   -4502.7834    17.990608           33          223 
Per MPI rank memory allocation (min/avg/max) = 5.514 | 5.514 | 5.514 Mbytes
Step Temp E_pair Volume TotEng Press Density v_cPt v_cAu 
  398400    407.22812   -843.13175    4648.3827   -829.70896   -4502.7834    17.990608           33          223 
  398500    433.38477   -844.20384    4656.5003    -829.9189   -847.99435    17.959245           33          223 
Per MPI rank memory allocation (min/avg/max) = 5.514 | 5.514 | 5.514 Mbytes
Step Temp E_pair Volume TotEng Press Density v_cPt v_cAu 
  398500    433.38477   -844.20384    4656.5003    -829.9189   -847.99435    17.959245           33          223 
  398600    415.95663    -843.8254    4652.2863   -830.11492   -135.21191    17.975513           33          223 
Per MPI rank memory allocation (min/avg/max) = 5.514 | 5.514 | 5.514 Mbytes
Step Temp E_pair Volume TotEng Press Density v_cPt v_cAu 
  398600    415.95663    -843.8254    4652.2863   -830.11492   -135.21191    17.975513           33          223 
  398700    378.34997   -842.72578    4647.7462   -830.25486   -742.60357    17.993071           33          223 
Per MPI rank memory allocation (min/avg/max) = 5.514 | 5.514 | 5.514 Mbytes
Step Temp E_pair Volume TotEng Press Density v_cPt v_cAu 
  398700    378.34997   -842.72578    4647.7462   -830.25486   -742.60357    17.993071           33          223 
  398800    425.73104    -844.4017    4637.8306   -830.36903    5758.0711    18.031541           33          223 
Per MPI rank memory allocation (min/avg/max) = 5.514 | 5.514 | 5.514 Mbytes
Step Temp E_pair Volume TotEng Press Density v_cPt v_cAu 
  398800    425.73104    -844.4017    4637.8306   -830.36903    5758.0711    18.031541           33          223 
  398900    398.61813    -843.6279    4665.4777   -830.48892   -4942.4348    17.924688           33          223 
Per MPI rank memory allocation (min/avg/max) = 5.514 | 5.514 | 5.514 Mbytes
Step Temp E_pair Volume TotEng Press Density v_cPt v_cAu 
  398900    398.61813    -843.6279    4665.4777   -830.48892   -4942.4348    17.924688           33          223 
  399000    400.38341   -843.77858    4661.7046   -830.58141   -5360.2188    17.939195           33          223 
Per MPI rank memory allocation (min/avg/max) = 5.514 | 5.514 | 5.514 Mbytes
Step Temp E_pair Volume TotEng Press Density v_cPt v_cAu 
  399000    400.38341   -843.77858    4661.7046   -830.58141   -5360.2188    17.939195           33          223 
  399100    453.51784   -845.55389    4623.8608   -830.60534    5964.7823    18.086018           33          223 
Per MPI rank memory allocation (min/avg/max) = 5.514 | 5.514 | 5.514 Mbytes
Step Temp E_pair Volume TotEng Press Density v_cPt v_cAu 
  399100    453.51784   -845.55389    4623.8608   -830.60534    5964.7823    18.086018           33          223 
  399200    366.87137    -842.8687     4649.766   -830.77613    2768.9811    17.985255           33          223 
Per MPI rank memory allocation (min/avg/max) = 5.514 | 5.514 | 5.514 Mbytes
Step Temp E_pair Volume TotEng Press Density v_cPt v_cAu 
  399200    366.87137    -842.8687     4649.766   -830.77613    2768.9811    17.985255           33          223 
  399300    388.09872   -843.54135    4682.7378    -830.7491   -11322.602    17.858619           33          223 
Per MPI rank memory allocation (min/avg/max) = 5.514 | 5.514 | 5.514 Mbytes
Step Temp E_pair Volume TotEng Press Density v_cPt v_cAu 
  399300    388.09872   -843.54135    4682.7378    -830.7491   -11322.602    17.858619           33          223 
  399400    405.51243   -844.17188     4628.582   -830.80564    6445.8084     18.06757           33          223 
Per MPI rank memory allocation (min/avg/max) = 5.514 | 5.514 | 5.514 Mbytes
Step Temp E_pair Volume TotEng Press Density v_cPt v_cAu 
  399400    405.51243   -844.17188     4628.582   -830.80564    6445.8084     18.06757           33          223 
  399500    406.79426   -844.24549    4623.4746     -830.837    6919.5345    18.087529           33          223 
Per MPI rank memory allocation (min/avg/max) = 5.514 | 5.514 | 5.514 Mbytes
Step Temp E_pair Volume TotEng Press Density v_cPt v_cAu 
  399500    406.79426   -844.24549    4623.4746     -830.837    6919.5345    18.087529           33          223 
  399600    385.10483   -843.55594    4665.2497   -830.86237    -6277.243    17.925564           33          223 
Per MPI rank memory allocation (min/avg/max) = 5.514 | 5.514 | 5.514 Mbytes
Step Temp E_pair Volume TotEng Press Density v_cPt v_cAu 
  399600    385.10483   -843.55594    4665.2497   -830.86237    -6277.243    17.925564           33          223 
  399700    384.41824   -843.58773    4655.9372   -830.91679   -1975.5237    17.961417           33          223 
Per MPI rank memory allocation (min/avg/max) = 5.514 | 5.514 | 5.514 Mbytes
Step Temp E_pair Volume TotEng Press Density v_cPt v_cAu 
  399700    384.41824   -843.58773    4655.9372   -830.91679   -1975.5237    17.961417           33          223 
  399800    413.33367   -844.55335    4628.5111   -830.92932    3042.5846    18.067847           33          223 
Per MPI rank memory allocation (min/avg/max) = 5.514 | 5.514 | 5.514 Mbytes
Step Temp E_pair Volume TotEng Press Density v_cPt v_cAu 
  399800    413.33367   -844.55335    4628.5111   -830.92932    3042.5846    18.067847           33          223 
  399900    377.92294   -843.43852    4630.5197   -830.98168    3845.7013     18.06001           33          223 
Per MPI rank memory allocation (min/avg/max) = 5.514 | 5.514 | 5.514 Mbytes
Step Temp E_pair Volume TotEng Press Density v_cPt v_cAu 
  399900    377.92294   -843.43852    4630.5197   -830.98168    3845.7013     18.06001           33          223 
  400000    395.79178   -844.04565    4651.7637   -830.99983    -2440.916    17.977532           33          223 
Per MPI rank memory allocation (min/avg/max) = 5.514 | 5.514 | 5.514 Mbytes
Step Temp E_pair Volume TotEng Press Density v_cPt v_cAu 
  400000    395.79178   -844.04565    4651.7637   -830.99983    -2440.916    17.977532           33          223 
  400100    398.09041   -844.15752    4653.8188   -831.03593    281.68123    17.969593           33          223 
Per MPI rank memory allocation (min/avg/max) = 5.514 | 5.514 | 5.514 Mbytes
Step Temp E_pair Volume TotEng Press Density v_cPt v_cAu 
  400100    398.09041   -844.15752    4653.8188