LAMMPS (22 Aug 2018)
Processor partition = 1
OMP_NUM_THREADS environment is not set. Defaulting to 1 thread. (../comm.cpp:87)
  using 1 OpenMP thread(s) per MPI task
# Demonstrating temper/swap

variable        tt equal 400.0      # target temperature
variable        pp equal 0.0      # target pressure
variable        chempot equal 0     # unused gcmc argument

variable        nlat equal 4        # supercell size
variable        natoms equal 4*${nlat}^3 # 4 FCC atoms per unit cell
variable        natoms equal 4*4^3 
variable        nd equal 1               # interval for fix gcmc
variable        nv equal 1               # interval for fix mc/box

variable        dmove equal 0.10         # size of max MC displacement
variable        vmove equal 0.05         # size of max MC volume change



units           metal
atom_style      atomic
pair_style      eam/alloy

#atom_modify     map array
#atom_modify     sort 0 0.0

boundary        p p p


variable        lat equal 4.0
variable        xx equal ${nlat}*${lat}
variable        xx equal 4*${lat}
variable        xx equal 4*4
variable        yy equal ${nlat}*${lat}
variable        yy equal 4*${lat}
variable        yy equal 4*4
variable        zz equal ${nlat}*${lat}
variable        zz equal 4*${lat}
variable        zz equal 4*4

region          box1   block 0 ${xx} 0 ${yy} 0 ${zz}
region          box1   block 0 16 0 ${yy} 0 ${zz}
region          box1   block 0 16 0 16 0 ${zz}
region          box1   block 0 16 0 16 0 16
#region 		box1   prism 0 ${xx} 0 ${yy} 0 ${zz} 0 0 0

lattice         fcc ${lat} origin 0.25 0.25 0.25
lattice         fcc 4 origin 0.25 0.25 0.25
Lattice spacing in x,y,z = 4 4 4
create_box      2  box1
Created orthogonal box = (0 0 0) to (16 16 16)
  1 by 1 by 1 MPI processor grid
create_atoms    1  box
Created 256 atoms
  Time spent = 0.000558615 secs

set             type 1 type/fraction 2 0.40 12345 ### for nlat = 2
  89 settings made for type/fraction


pair_style      eam/alloy
pair_coeff      * *   PtAu.eam.alloy Pt Au


variable        temper_T world ${tt} ${tt}
variable        temper_T world 400 ${tt}
variable        temper_T world 400 400
variable 	rep world 0 1
variable        each equal 100
variable	dach equal v_each*10
variable        ncycles equal 2000

# atom counts


variable        Pt atom "type==1"
variable        Au atom "type==2"

group           Pt dynamic all var Pt
dynamic group Pt defined
group           Au dynamic all var Au
dynamic group Au defined

variable        cPt equal count(Pt)
variable        cAu equal count(Au)


variable        tt     equal 2.0*${temper_T}
variable        tt     equal 2.0*400
velocity        all create ${tt} 12345 mom yes rot yes dist gaussian
velocity        all create 800 12345 mom yes rot yes dist gaussian



fix             myfix all npt temp ${temper_T} ${temper_T} 1.0 iso ${pp} ${pp} 1.0
fix             myfix all npt temp 400 ${temper_T} 1.0 iso ${pp} ${pp} 1.0
fix             myfix all npt temp 400 400 1.0 iso ${pp} ${pp} 1.0
fix             myfix all npt temp 400 400 1.0 iso 0 ${pp} 1.0
fix             myfix all npt temp 400 400 1.0 iso 0 0 1.0
run             10000
Neighbor list info ...
  update every 1 steps, delay 10 steps, check yes
  max neighbors/atom: 2000, page size: 100000
  master list distance cutoff = 7.75
  ghost atom cutoff = 7.75
  binsize = 3.875, bins = 5 5 5
  1 neighbor lists, perpetual/occasional/extra = 1 0 0
  (1) pair eam/alloy, perpetual
      attributes: half, newton on
      pair build: half/bin/atomonly/newton
      stencil: half/bin/3d/newton
      bin: standard
Per MPI rank memory allocation (min/avg/max) = 3.38 | 3.38 | 3.38 Mbytes
Step Temp E_pair E_mol TotEng Press Volume 
       0          800   -1167.9735            0   -1141.6044    62211.214         4096 
   10000    391.71517   -1161.1561            0   -1148.2446     -1403.26    4293.4249 
Loop time of 4.95552 on 1 procs for 10000 steps with 256 atoms

Performance: 174.351 ns/day, 0.138 hours/ns, 2017.954 timesteps/s
100.0% CPU use with 1 MPI tasks x 1 OpenMP threads

MPI task timing breakdown:
Section |  min time  |  avg time  |  max time  |%varavg| %total
---------------------------------------------------------------
Pair    | 4.5056     | 4.5056     | 4.5056     |   0.0 | 90.92
Neigh   | 0          | 0          | 0          |   0.0 |  0.00
Comm    | 0.075108   | 0.075108   | 0.075108   |   0.0 |  1.52
Output  | 2.7657e-05 | 2.7657e-05 | 2.7657e-05 |   0.0 |  0.00
Modify  | 0.32836    | 0.32836    | 0.32836    |   0.0 |  6.63
Other   |            | 0.04643    |            |       |  0.94

Nlocal:    256 ave 256 max 256 min
Histogram: 1 0 0 0 0 0 0 0 0 0
Nghost:    1792 ave 1792 max 1792 min
Histogram: 1 0 0 0 0 0 0 0 0 0
Neighs:    17152 ave 17152 max 17152 min
Histogram: 1 0 0 0 0 0 0 0 0 0

Total # of neighbors = 17152
Ave neighs/atom = 67
Neighbor list builds = 0
Dangerous builds = 0
unfix           myfix


thermo_style    custom step temp epair vol etotal press density v_cPt v_cAu
thermo          ${each}
thermo          100


reset_timestep 0    ### reset to get counter on swaps correct


fix             myfix all npt temp ${temper_T} ${temper_T} 1.0 iso ${pp} ${pp} 2.0 tchain 5 pchain 5
fix             myfix all npt temp 400 ${temper_T} 1.0 iso ${pp} ${pp} 2.0 tchain 5 pchain 5
fix             myfix all npt temp 400 400 1.0 iso ${pp} ${pp} 2.0 tchain 5 pchain 5
fix             myfix all npt temp 400 400 1.0 iso 0 ${pp} 2.0 tchain 5 pchain 5
fix             myfix all npt temp 400 400 1.0 iso 0 0 2.0 tchain 5 pchain 5
#fix             myfix all nvt temp ${temper_T} ${temper_T} 1.0 tchain 5
#fix             myfix all nve
#fix             myfix1 all langevin ${tt} ${tt} 1.0 699483


dump            1 all custom ${dach} dump.${rep} id type x y z
dump            1 all custom 1000 dump.${rep} id type x y z
dump            1 all custom 1000 dump.1 id type x y z

gibbs/multireplica 10000000  ${each}  ${ncycles} ${temper_T} myfix 123 888 types 1 2 fudge 0.0
gibbs/multireplica 10000000  100  ${ncycles} ${temper_T} myfix 123 888 types 1 2 fudge 0.0
gibbs/multireplica 10000000  100  2000 ${temper_T} myfix 123 888 types 1 2 fudge 0.0
gibbs/multireplica 10000000  100  2000 400 myfix 123 888 types 1 2 fudge 0.0
WARNING: Using 'neigh_modify every 1 delay 0 check yes' setting during minimization (../min.cpp:168)
Per MPI rank memory allocation (min/avg/max) = 5.514 | 5.514 | 5.514 Mbytes
Step Temp E_pair Volume TotEng Press Density v_cPt v_cAu 
       0    391.71517   -1161.1561    4293.4249   -1148.2446     -1403.26    19.380725          167           89 
     100    388.01648   -1161.0314    4289.4842   -1148.2419    754.62229    19.398529          167           89 
Per MPI rank memory allocation (min/avg/max) = 5.514 | 5.514 | 5.514 Mbytes
Step Temp E_pair Volume TotEng Press Density v_cPt v_cAu 
     100    388.01648   -1161.0314    4289.4842   -1148.2419    754.62229    19.398529          167           89 
     200    406.81102   -1161.6378     4291.839   -1148.2288   -1784.5414    19.387886          167           89 
Per MPI rank memory allocation (min/avg/max) = 5.514 | 5.514 | 5.514 Mbytes
Step Temp E_pair Volume TotEng Press Density v_cPt v_cAu 
     200    406.81102   -1161.6378     4291.839   -1148.2288   -1784.5414    19.387886          167           89 
     300    384.29912   -1160.8805    4287.3233   -1148.2135    1007.8822    19.408307          167           89 
Per MPI rank memory allocation (min/avg/max) = 5.514 | 5.514 | 5.514 Mbytes
Step Temp E_pair Volume TotEng Press Density v_cPt v_cAu 
     300    384.29912   -1160.8805    4287.3233   -1148.2135    1007.8822    19.408307          167           89 
     400    387.08243   -1160.9506    4289.6722   -1148.1919    478.52234    19.397679          167           89 
Per MPI rank memory allocation (min/avg/max) = 5.514 | 5.514 | 5.514 Mbytes
Step Temp E_pair Volume TotEng Press Density v_cPt v_cAu 
     400    387.08243   -1160.9506    4289.6722   -1148.1919    478.52234    19.397679          167           89 
     500    394.32468   -1161.1548    4293.1307   -1148.1573   -1346.0584    19.382053          167           89 
Per MPI rank memory allocation (min/avg/max) = 5.514 | 5.514 | 5.514 Mbytes
Step Temp E_pair Volume TotEng Press Density v_cPt v_cAu 
     500    394.32468   -1161.1548    4293.1307   -1148.1573   -1346.0584    19.382053          167           89 
     600    392.13206   -1161.0467    4285.8253   -1148.1215    2059.6395     19.41509          167           89 
Per MPI rank memory allocation (min/avg/max) = 5.514 | 5.514 | 5.514 Mbytes
Step Temp E_pair Volume TotEng Press Density v_cPt v_cAu 
     600    392.13206   -1161.0467    4285.8253   -1148.1215    2059.6395     19.41509          167           89 
     700    379.87376   -1160.6038     4287.834   -1148.0826    1635.4736    19.405995          167           89 
Per MPI rank memory allocation (min/avg/max) = 5.514 | 5.514 | 5.514 Mbytes
Step Temp E_pair Volume TotEng Press Density v_cPt v_cAu 
     700    379.87376   -1158.1943     4287.834   -1145.6731    2686.7689    19.406722          166           90 
     800    398.82205   -1158.7738    4301.9641   -1145.6281   -3716.7996    19.342979          166           90 
Per MPI rank memory allocation (min/avg/max) = 5.514 | 5.514 | 5.514 Mbytes
Step Temp E_pair Volume TotEng Press Density v_cPt v_cAu 
     800    398.82205   -1161.1851    4301.9641   -1148.0394   -4495.3232    19.342255          167           89 
     900    401.92453   -1161.2471    4290.7033   -1147.9992   -1180.6719    19.393018          167           89 
Per MPI rank memory allocation (min/avg/max) = 5.514 | 5.514 | 5.514 Mbytes
Step Temp E_pair Volume TotEng Press Density v_cPt v_cAu 
     900    401.92453   -1158.7798    4290.7033   -1145.5319    3.7613595    19.393744          166           90 
    1000    395.77405   -1158.4925    4278.4656   -1145.4473    6308.4214    19.449216          166           90 
Per MPI rank memory allocation (min/avg/max) = 5.514 | 5.514 | 5.514 Mbytes
Step Temp E_pair Volume TotEng Press Density v_cPt v_cAu 
    1000    395.77405   -1158.4925    4278.4656   -1145.4473    6308.4214    19.449216          166           90 
    1100    389.12989   -1158.2021    4306.4139   -1145.3759   -5572.0618    19.322992          166           90 
Per MPI rank memory allocation (min/avg/max) = 5.514 | 5.514 | 5.514 Mbytes
Step Temp E_pair Volume TotEng Press Density v_cPt v_cAu 
    1100    389.12989   -1158.2021    4306.4139   -1145.3759   -5572.0618    19.322992          166           90 
    1200    390.52976   -1158.1727    4298.1318   -1145.3004   -643.71196    19.360226          166           90 
Per MPI rank memory allocation (min/avg/max) = 5.514 | 5.514 | 5.514 Mbytes
Step Temp E_pair Volume TotEng Press Density v_cPt v_cAu 
    1200    390.52976   -1158.1727    4298.1318   -1145.3004   -643.71196    19.360226          166           90 
    1300    417.01399   -1158.9086     4282.275   -1145.1632     4833.943    19.431915          166           90 
Per MPI rank memory allocation (min/avg/max) = 5.514 | 5.514 | 5.514 Mbytes
Step Temp E_pair Volume TotEng Press Density v_cPt v_cAu 
    1300    417.01399   -1158.9086     4282.275   -1145.1632     4833.943    19.431915          166           90 
    1400     408.4126   -1158.5008    4298.7392    -1145.039   -4208.4632     19.35749          166           90 
Per MPI rank memory allocation (min/avg/max) = 5.514 | 5.514 | 5.514 Mbytes
Step Temp E_pair Volume TotEng Press Density v_cPt v_cAu 
    1400     408.4126   -1158.5008    4298.7392    -1145.039   -4208.4632     19.35749          166           90 
    1500    377.55738     -1157.35    4290.9881   -1144.9052    2459.7405    19.392457          166           90 
Per MPI rank memory allocation (min/avg/max) = 5.514 | 5.514 | 5.514 Mbytes
Step Temp E_pair Volume TotEng Press Density v_cPt v_cAu 
    1500    377.55738   -1159.8495    4290.9881   -1147.4047    980.09433    19.391731          167           89 
    1600    423.52858   -1161.1929    4290.3158   -1147.2329    1112.7019    19.394769          167           89 
Per MPI rank memory allocation (min/avg/max) = 5.514 | 5.514 | 5.514 Mbytes
Step Temp E_pair Volume TotEng Press Density v_cPt v_cAu 
    1600    423.52858   -1161.1929    4290.3158   -1147.2329    1112.7019    19.394769          167           89 
    1700    416.70746    -1160.763    4298.6198   -1147.0278   -2559.5931    19.357303          167           89 
Per MPI rank memory allocation (min/avg/max) = 5.514 | 5.514 | 5.514 Mbytes
Step Temp E_pair Volume TotEng Press Density v_cPt v_cAu 
    1700    416.70746    -1160.763    4298.6198   -1147.0278   -2559.5931    19.357303          167           89 
    1800     378.5775   -1159.2938    4289.2231   -1146.8153     5097.093     19.39971          167           89 
Per MPI rank memory allocation (min/avg/max) = 5.514 | 5.514 | 5.514 Mbytes
Step Temp E_pair Volume TotEng Press Density v_cPt v_cAu 
    1800     378.5775   -1159.2938    4289.2231   -1146.8153     5097.093     19.39971          167           89 
    1900    442.55928   -1161.1755     4302.525   -1146.5882   -4230.0067    19.339733          167           89 
Per MPI rank memory allocation (min/avg/max) = 5.514 | 5.514 | 5.514 Mbytes
Step Temp E_pair Volume TotEng Press Density v_cPt v_cAu 
    1900    442.55928   -1161.1755     4302.525   -1146.5882   -4230.0067    19.339733          167           89 
    2000    431.39076   -1160.5722    4298.8777    -1146.353    -1841.892    19.356142          167           89 
Per MPI rank memory allocation (min/avg/max) = 5.514 | 5.514 | 5.514 Mbytes
Step Temp E_pair Volume TotEng Press Density v_cPt v_cAu 
    2000    431.39076   -1160.5722    4298.8777    -1146.353    -1841.892    19.356142          167           89 
    2100    439.58681   -1160.5951    4285.8632   -1146.1058    3652.8648    19.414919          167           89 
Per MPI rank memory allocation (min/avg/max) = 5.514 | 5.514 | 5.514 Mbytes
Step Temp E_pair Volume TotEng Press Density v_cPt v_cAu 
    2100    439.58681   -1160.5951    4285.8632   -1146.1058    3652.8648    19.414919          167           89 
    2200    397.48208   -1159.0139    4298.3481   -1145.9123    1003.4036    19.358526          167           89 
Per MPI rank memory allocation (min/avg/max) = 5.514 | 5.514 | 5.514 Mbytes
Step Temp E_pair Volume TotEng Press Density v_cPt v_cAu 
    2200    397.48208   -1159.0139    4298.3481   -1145.9123    1003.4036    19.358526          167           89 
    2300    436.84728   -1160.1069    4310.0632   -1145.7078   -3825.4654    19.305909          167           89 
Per MPI rank memory allocation (min/avg/max) = 5.514 | 5.514 | 5.514 Mbytes
Step Temp E_pair Volume TotEng Press Density v_cPt v_cAu 
    2300    436.84728   -1160.1069    4310.0632   -1145.7078   -3825.4654    19.305909          167           89 
    2400    403.63096   -1158.8622    4294.7025    -1145.558    3429.5378    19.374959          167           89 
Per MPI rank memory allocation (min/avg/max) = 5.514 | 5.514 | 5.514 Mbytes
Step Temp E_pair Volume TotEng Press Density v_cPt v_cAu 
    2400    403.63096   -1161.4113    4294.7025   -1148.1071    2129.7021    19.374234          168           88 
    2500     446.2105   -1162.6934    4288.5009   -1147.9857     105.5769    19.402251          168           88 
Per MPI rank memory allocation (min/avg/max) = 5.514 | 5.514 | 5.514 Mbytes
Step Temp E_pair Volume TotEng Press Density v_cPt v_cAu 
    2500     446.2105   -1162.6934    4288.5009   -1147.9857     105.5769    19.402251          168           88 
    2600    414.87495   -1161.5861    4284.7062   -1147.9113    3178.2092    19.419434          168           88 
Per MPI rank memory allocation (min/avg/max) = 5.514 | 5.514 | 5.514 Mbytes
Step Temp E_pair Volume TotEng Press Density v_cPt v_cAu 
    2600    414.87495   -1161.5861    4284.7062   -1147.9113    3178.2092    19.419434          168           88 
    2700    449.33619   -1162.6794    4298.4755   -1147.8686   -2393.2872    19.357228          168           88 
Per MPI rank memory allocation (min/avg/max) = 5.514 | 5.514 | 5.514 Mbytes
Step Temp E_pair Volume TotEng Press Density v_cPt v_cAu 
    2700    449.33619   -1162.6794    4298.4755   -1147.8686   -2393.2872    19.357228          168           88 
    2800    415.12807   -1161.5441    4297.5682   -1147.8609    844.38989    19.361314          168           88 
Per MPI rank memory allocation (min/avg/max) = 5.514 | 5.514 | 5.514 Mbytes
Step Temp E_pair Volume TotEng Press Density v_cPt v_cAu 
    2800    415.12807   -1161.5795    4297.5682   -1147.8964    672.38864    19.361314          168           88 
    2900    450.06897   -1162.7426    4295.7227   -1147.9077   -1180.5636    19.369633          168           88 
Per MPI rank memory allocation (min/avg/max) = 5.514 | 5.514 | 5.514 Mbytes
Step Temp E_pair Volume TotEng Press Density v_cPt v_cAu 
    2900    450.06897   -1162.7426    4295.7227   -1147.9077   -1180.5636    19.369633          168           88 
    3000    449.03792    -1162.747     4289.978   -1147.9461    1664.2868     19.39557          168           88 
Per MPI rank memory allocation (min/avg/max) = 5.514 | 5.514 | 5.514 Mbytes
Step Temp E_pair Volume TotEng Press Density v_cPt v_cAu 
    3000    449.03792    -1162.747     4289.978   -1147.9461    1664.2868     19.39557          168           88 
    3100    443.79917   -1162.6369    4296.3949   -1148.0087   -421.40252    19.366602          168           88 
Per MPI rank memory allocation (min/avg/max) = 5.514 | 5.514 | 5.514 Mbytes
Step Temp E_pair Volume TotEng Press Density v_cPt v_cAu 
    3100    443.79917   -1162.6369    4296.3949   -1148.0087   -421.40252    19.366602          168           88 
    3200    447.78742   -1162.8344    4301.2186   -1148.0747    -3503.144    19.344883          168           88 
Per MPI rank memory allocation (min/avg/max) = 5.514 | 5.514 | 5.514 Mbytes
Step Temp E_pair Volume TotEng Press Density v_cPt v_cAu 
    3200    447.78742   -1162.8344    4301.2186   -1148.0747    -3503.144    19.344883          168           88 
    3300    421.39591   -1162.0403    4286.5421   -1148.1505      5108.63    19.411117          168           88 
Per MPI rank memory allocation (min/avg/max) = 5.514 | 5.514 | 5.514 Mbytes
Step Temp E_pair Volume TotEng Press Density v_cPt v_cAu 
    3300    421.39591   -1162.0403    4286.5421   -1148.1505      5108.63    19.411117          168           88 
    3400    419.90637   -1162.0872    4296.8972   -1148.2465   -1129.3717    19.364338          168           88 
Per MPI rank memory allocation (min/avg/max) = 5.514 | 5.514 | 5.514 Mbytes
Step Temp E_pair Volume TotEng Press Density v_cPt v_cAu 
    3400    419.90637   -1162.0872    4296.8972   -1148.2465   -1129.3717    19.364338          168           88 
    3500    427.34915   -1162.4255    4295.6734   -1148.3395   -1355.0624    19.369855          168           88 
Per MPI rank memory allocation (min/avg/max) = 5.514 | 5.514 | 5.514 Mbytes
Step Temp E_pair Volume TotEng Press Density v_cPt v_cAu 
    3500    427.34915   -1162.4255    4295.6734   -1148.3395   -1355.0624    19.369855          168           88 
    3600    441.72647   -1162.9943    4283.5664   -1148.4344    3852.9857    19.424602          168           88 
Per MPI rank memory allocation (min/avg/max) = 5.514 | 5.514 | 5.514 Mbytes
Step Temp E_pair Volume TotEng Press Density v_cPt v_cAu 
    3600    441.72647   -1162.9943    4283.5664   -1148.4344    3852.9857    19.424602          168           88 
    3700    410.79935   -1162.1035    4293.4145    -1148.563    660.40867    19.380046          168           88 
Per MPI rank memory allocation (min/avg/max) = 5.514 | 5.514 | 5.514 Mbytes
Step Temp E_pair Volume TotEng Press Density v_cPt v_cAu 
    3700    410.79935   -1162.1035    4293.4145    -1148.563    660.40867    19.380046          168           88 
    3800    439.05772   -1163.1479    4303.6782   -1148.6759   -3715.2593    19.333827          168           88 
Per MPI rank memory allocation (min/avg/max) = 5.514 | 5.514 | 5.514 Mbytes
Step Temp E_pair Volume TotEng Press Density v_cPt v_cAu 
    3800    439.05772   -1163.1479    4303.6782   -1148.6759   -3715.2593    19.333827          168           88 
    3900    433.98325   -1163.1075    4292.6574   -1148.8029    423.27183    19.383464          168           88 
Per MPI rank memory allocation (min/avg/max) = 5.514 | 5.514 | 5.514 Mbytes
Step Temp E_pair Volume TotEng Press Density v_cPt v_cAu 
    3900    433.98325   -1163.1075    4292.6574   -1148.8029    423.27183    19.383464          168           88 
    4000    438.49982   -1163.3877    4285.9815   -1148.9342    711.91856    19.413656          168           88 
Per MPI rank memory allocation (min/avg/max) = 5.514 | 5.514 | 5.514 Mbytes
Step Temp E_pair Volume TotEng Press Density v_cPt v_cAu 
    4000    438.49982   -1163.3877    4285.9815   -1148.9342    711.91856    19.413656          168           88 
    4100    409.84567   -1162.5918    4290.9514   -1149.0828    716.08262    19.391171          168           88 
Per MPI rank memory allocation (min/avg/max) = 5.514 | 5.514 | 5.514 Mbytes
Step Temp E_pair Volume TotEng Press Density v_cPt v_cAu 
    4100    409.84567   -1162.5918    4290.9514   -1149.0828    716.08262    19.391171          168           88 
    4200    405.92995   -1162.5954    4296.2802   -1149.2154    -1209.106    19.367119          168           88 
Per MPI rank memory allocation (min/avg/max) = 5.514 | 5.514 | 5.514 Mbytes
Step Temp E_pair Volume TotEng Press Density v_cPt v_cAu 
    4200    405.92995   -1162.5954    4296.2802   -1149.2154    -1209.106    19.367119          168           88 
    4300    453.86791   -1164.3183    4286.1334   -1149.3582    1422.3432    19.412968          168           88 
Per MPI rank memory allocation (min/avg/max) = 5.514 | 5.514 | 5.514 Mbytes
Step Temp E_pair Volume TotEng Press Density v_cPt v_cAu 
    4300    453.86791   -1164.3183    4286.1334   -1149.3582    1422.3432    19.412968          168           88 
    4400    403.12173   -1162.8119    4291.8751   -1149.5245    1869.2169    19.386997          168           88 
Per MPI rank memory allocation (min/avg/max) = 5.514 | 5.514 | 5.514 Mbytes
Step Temp E_pair Volume TotEng Press Density v_cPt v_cAu 
    4400    403.12173   -1162.7508    4291.8751   -1149.4634    1647.8972    19.386997          168           88 
    4500    415.93693   -1163.2955    4305.0629   -1149.5857   -8225.7606    19.327608          168           88 
Per MPI rank memory allocation (min/avg/max) = 5.514 | 5.514 | 5.514 Mbytes
Step Temp E_pair Volume TotEng Press Density v_cPt v_cAu 
    4500    415.93693   -1163.2955    4305.0629   -1149.5857   -8225.7606    19.327608          168           88 
    4600    395.57437   -1162.7474    4268.9437   -1149.7088    8943.8485    19.491138          168           88 
Per MPI rank memory allocation (min/avg/max) = 5.514 | 5.514 | 5.514 Mbytes
Step Temp E_pair Volume TotEng Press Density v_cPt v_cAu 
    4600    395.57437   -1162.7474    4268.9437   -1149.7088    8943.8485    19.491138          168           88 
    4700    428.06279   -1163.9925     4285.989   -1149.8829    1494.6039    19.413622          168           88 
Per MPI rank memory allocation (min/avg/max) = 5.514 | 5.514 | 5.514 Mbytes
Step Temp E_pair Volume TotEng Press Density v_cPt v_cAu 
    4700    428.06279   -1163.9925     4285.989   -1149.8829    1494.6039    19.413622          168           88 
    4800    393.07273   -1162.9067    4311.2229   -1149.9505   -8363.6375    19.299993          168           88 
Per MPI rank memory allocation (min/avg/max) = 5.514 | 5.514 | 5.514 Mbytes
Step Temp E_pair Volume TotEng Press Density v_cPt v_cAu 
    4800    393.07273   -1162.9067    4311.2229   -1149.9505   -8363.6375    19.299993          168           88 
    4900    414.96665   -1163.7522    4279.5712   -1150.0743    4810.4105    19.442735          168           88 
Per MPI rank memory allocation (min/avg/max) = 5.514 | 5.514 | 5.514 Mbytes
Step Temp E_pair Volume TotEng Press Density v_cPt v_cAu 
    4900    414.96665   -1163.7522    4279.5712   -1150.0743    4810.4105    19.442735          168           88 
    5000     402.2666   -1163.4592    4282.7558   -1150.1999     3948.111    19.428278          168           88 
Per MPI rank memory allocation (min/avg/max) = 5.514 | 5.514 | 5.514 Mbytes
Step Temp E_pair Volume TotEng Press Density v_cPt v_cAu 
    5000     402.2666   -1163.4592    4282.7558   -1150.1999     3948.111    19.428278          168           88 
    5100    379.04763   -1162.7597    4307.7238   -1150.2658   -7317.3382     19.31567          168           88 
Per MPI rank memory allocation (min/avg/max) = 5.514 | 5.514 | 5.514 Mbytes
Step Temp E_pair Volume TotEng Press Density v_cPt v_cAu 
    5100    379.04763   -1165.2045    4307.7238   -1152.7106   -8443.0054    19.314946          169           87 
    5200    395.99714   -1165.9063    4273.2139   -1152.8537    4764.8743    19.470931          169           87 
Per MPI rank memory allocation (min/avg/max) = 5.514 | 5.514 | 5.514 Mbytes
Step Temp E_pair Volume TotEng Press Density v_cPt v_cAu 
    5200    395.99714   -1165.9063    4273.2139   -1152.8537    4764.8743    19.470931          169           87 
    5300    423.86239   -1166.8947    4266.4224   -1152.9236    7554.1159    19.501926          169           87 
Per MPI rank memory allocation (min/avg/max) = 5.514 | 5.514 | 5.514 Mbytes
Step Temp E_pair Volume TotEng Press Density v_cPt v_cAu 
    5300    423.86239   -1166.8947    4266.4224   -1152.9236    7554.1159    19.501926          169           87 
    5400     404.2384   -1166.3145    4313.0651   -1152.9902   -11002.595    19.291027          169           87 
Per MPI rank memory allocation (min/avg/max) = 5.514 | 5.514 | 5.514 Mbytes
Step Temp E_pair Volume TotEng Press Density v_cPt v_cAu 
    5400     404.2384   -1166.3145    4313.0651   -1152.9902   -11002.595    19.291027          169           87 
    5500    402.84523   -1166.4016    4291.4244   -1153.1233   -413.29725    19.388307          169           87 
Per MPI rank memory allocation (min/avg/max) = 5.514 | 5.514 | 5.514 Mbytes
Step Temp E_pair Volume TotEng Press Density v_cPt v_cAu 
    5500    402.84523   -1166.4016    4291.4244   -1153.1233   -413.29725    19.388307          169           87 
    5600    381.11516   -1165.6851      4261.52   -1153.1231    11520.189    19.524361          169           87 
Per MPI rank memory allocation (min/avg/max) = 5.514 | 5.514 | 5.514 Mbytes
Step Temp E_pair Volume TotEng Press Density v_cPt v_cAu 
    5600    381.11516   -1165.6851      4261.52   -1153.1231    11520.189    19.524361          169           87 
    5700    395.31615   -1166.2406    4297.9669   -1153.2105   -7339.5984    19.358793          169           87 
Per MPI rank memory allocation (min/avg/max) = 5.514 | 5.514 | 5.514 Mbytes
Step Temp E_pair Volume TotEng Press Density v_cPt v_cAu 
    5700    395.31615   -1166.2406    4297.9669   -1153.2105   -7339.5984    19.358793          169           87 
    5800    393.86085   -1166.2761    4287.6083   -1153.2939     622.7916    19.405563          169           87 
Per MPI rank memory allocation (min/avg/max) = 5.514 | 5.514 | 5.514 Mbytes
Step Temp E_pair Volume TotEng Press Density v_cPt v_cAu 
    5800    393.86085   -1166.2761    4287.6083   -1153.2939     622.7916    19.405563          169           87 
    5900    414.68916   -1167.0023    4276.5242   -1153.3336    5113.8454    19.455859          169           87 
Per MPI rank memory allocation (min/avg/max) = 5.514 | 5.514 | 5.514 Mbytes
Step Temp E_pair Volume TotEng Press Density v_cPt v_cAu 
    5900    414.68916   -1167.0023    4276.5242   -1153.3336    5113.8454    19.455859          169           87 
    6000    384.66981    -1166.071    4306.4597   -1153.3918   -6883.5992    19.320616          169           87 
Per MPI rank memory allocation (min/avg/max) = 5.514 | 5.514 | 5.514 Mbytes
Step Temp E_pair Volume TotEng Press Density v_cPt v_cAu 
    6000    384.66981    -1166.071    4306.4597   -1153.3918   -6883.5992    19.320616          169           87 
    6100    399.29789   -1166.6664    4286.9571    -1153.505   -1066.3107    19.408511          169           87 
Per MPI rank memory allocation (min/avg/max) = 5.514 | 5.514 | 5.514 Mbytes
Step Temp E_pair Volume TotEng Press Density v_cPt v_cAu 
    6100    399.29789   -1166.6664    4286.9571    -1153.505   -1066.3107    19.408511          169           87 
    6200    410.99755   -1167.0295    4262.6243   -1153.4824    8979.4959    19.519303          169           87 
Per MPI rank memory allocation (min/avg/max) = 5.514 | 5.514 | 5.514 Mbytes
Step Temp E_pair Volume TotEng Press Density v_cPt v_cAu 
    6200    410.99755   -1169.5705    4262.6243   -1156.0235    7526.1695    19.518572          170           86 
    6300     377.1345   -1168.5026    4293.9717   -1156.0717   -5592.6711     19.37608          170           86 
Per MPI rank memory allocation (min/avg/max) = 5.514 | 5.514 | 5.514 Mbytes
Step Temp E_pair Volume TotEng Press Density v_cPt v_cAu 
    6300     377.1345   -1168.5026    4293.9717   -1156.0717   -5592.6711     19.37608          170           86 
    6400    409.16826   -1169.6298    4283.5179   -1156.1431   -2628.2475    19.423366          170           86 
Per MPI rank memory allocation (min/avg/max) = 5.514 | 5.514 | 5.514 Mbytes
Step Temp E_pair Volume TotEng Press Density v_cPt v_cAu 
    6400    409.16826   -1169.6298    4283.5179   -1156.1431   -2628.2475    19.423366          170           86 
    6500     392.1875   -1169.0714     4261.896   -1156.1443    10639.609    19.521907          170           86 
Per MPI rank memory allocation (min/avg/max) = 5.514 | 5.514 | 5.514 Mbytes
Step Temp E_pair Volume TotEng Press Density v_cPt v_cAu 
    6500     392.1875   -1169.0714     4261.896   -1156.1443    10639.609    19.521907          170           86 
    6600    353.14109   -1167.8237     4301.041   -1156.1837   -7367.5982    19.344233          170           86 
Per MPI rank memory allocation (min/avg/max) = 5.514 | 5.514 | 5.514 Mbytes
Step Temp E_pair Volume TotEng Press Density v_cPt v_cAu 
    6600    353.14109   -1167.8237     4301.041   -1156.1837   -7367.5982    19.344233          170           86 
    6700    428.85968   -1170.4039     4284.815   -1156.2681   -1588.1585    19.417487          170           86 
Per MPI rank memory allocation (min/avg/max) = 5.514 | 5.514 | 5.514 Mbytes
Step Temp E_pair Volume TotEng Press Density v_cPt v_cAu 
    6700    428.85968   -1170.5327     4284.815   -1156.3969   -1639.5772    19.417487          170           86 
    6800    394.29346   -1169.3525    4261.2768    -1156.356    9080.8746    19.524744          170           86 
Per MPI rank memory allocation (min/avg/max) = 5.514 | 5.514 | 5.514 Mbytes
Step Temp E_pair Volume TotEng Press Density v_cPt v_cAu 
    6800    394.29346   -1169.3525    4261.2768    -1156.356    9080.8746    19.524744          170           86 
    6900     381.1266   -1168.9353    4300.9302   -1156.3729   -9816.3748    19.344731          170           86 
Per MPI rank memory allocation (min/avg/max) = 5.514 | 5.514 | 5.514 Mbytes
Step Temp E_pair Volume TotEng Press Density v_cPt v_cAu 
    6900     381.1266   -1168.9404    4300.9302    -1156.378   -9695.5654    19.344731          170           86 
    7000    407.84574   -1169.9184    4274.9838   -1156.4752     1292.558    19.462141          170           86 
Per MPI rank memory allocation (min/avg/max) = 5.514 | 5.514 | 5.514 Mbytes
Step Temp E_pair Volume TotEng Press Density v_cPt v_cAu 
    7000    407.84574   -1169.9184    4274.9838   -1156.4752     1292.558    19.462141          170           86 
    7100    386.01903   -1169.1707    4260.2507    -1156.447    10601.006    19.529447          170           86 
Per MPI rank memory allocation (min/avg/max) = 5.514 | 5.514 | 5.514 Mbytes
Step Temp E_pair Volume TotEng Press Density v_cPt v_cAu 
    7100    386.01903   -1166.8523    4260.2507   -1154.1286    11541.429    19.530178          169           87 
    7200    412.12659   -1167.6672    4316.0093    -1154.083   -15084.721    19.277867          169           87 
Per MPI rank memory allocation (min/avg/max) = 5.514 | 5.514 | 5.514 Mbytes
Step Temp E_pair Volume TotEng Press Density v_cPt v_cAu 
    7200    412.12659   -1167.6672    4316.0093    -1154.083   -15084.721    19.277867          169           87 
    7300    369.20295   -1166.3904    4276.4954   -1154.2209    3327.5843    19.455991          169           87 
Per MPI rank memory allocation (min/avg/max) = 5.514 | 5.514 | 5.514 Mbytes
Step Temp E_pair Volume TotEng Press Density v_cPt v_cAu 
    7300    369.20295   -1166.3078    4276.4954   -1154.1383    3054.6558    19.455991          169           87 
    7400    419.65363   -1167.8612    4254.6023   -1154.0289    9027.1017    19.556106          169           87 
Per MPI rank memory allocation (min/avg/max) = 5.514 | 5.514 | 5.514 Mbytes
Step Temp E_pair Volume TotEng Press Density v_cPt v_cAu 
    7400    419.65363   -1167.8612    4254.6023   -1154.0289    9027.1017    19.556106          169           87 
    7500    365.51443   -1166.0708    4298.7514    -1154.023   -6456.7836    19.355261          169           87 
Per MPI rank memory allocation (min/avg/max) = 5.514 | 5.514 | 5.514 Mbytes
Step Temp E_pair Volume TotEng Press Density v_cPt v_cAu 
    7500    365.51443   -1166.0708    4298.7514    -1154.023   -6456.7836    19.355261          169           87 
    7600    402.37973   -1167.3178     4288.946   -1154.0548    -2044.239    19.399511          169           87 
Per MPI rank memory allocation (min/avg/max) = 5.514 | 5.514 | 5.514 Mbytes
Step Temp E_pair Volume TotEng Press Density v_cPt v_cAu 
    7600    402.37973   -1167.3178     4288.946   -1154.0548    -2044.239    19.399511          169           87 
    7700    410.40168   -1167.5221    4267.5315   -1153.9947    6424.6099    19.496857          169           87 
Per MPI rank memory allocation (min/avg/max) = 5.514 | 5.514 | 5.514 Mbytes
Step Temp E_pair Volume TotEng Press Density v_cPt v_cAu 
    7700    410.40168   -1167.5127    4267.5315   -1153.9853    6503.5581    19.496857          169           87 
    7800      386.399   -1166.7328    4297.9758   -1153.9966   -5349.3548    19.358753          169           87 
Per MPI rank memory allocation (min/avg/max) = 5.514 | 5.514 | 5.514 Mbytes
Step Temp E_pair Volume TotEng Press Density v_cPt v_cAu 
    7800      386.399   -1166.7328    4297.9758   -1153.9966   -5349.3548    19.358753          169           87 
    7900    382.43647   -1166.6063    4289.1194   -1154.0007    -1468.289    19.398726          169           87 
Per MPI rank memory allocation (min/avg/max) = 5.514 | 5.514 | 5.514 Mbytes
Step Temp E_pair Volume TotEng Press Density v_cPt v_cAu 
    7900    382.43647   -1164.1379    4289.1194   -1151.5323   -368.61426    19.399453          168           88 
    8000    382.69959   -1164.0743    4263.8467     -1151.46    8621.5368    19.514438          168           88 
Per MPI rank memory allocation (min/avg/max) = 5.514 | 5.514 | 5.514 Mbytes
Step Temp E_pair Volume TotEng Press Density v_cPt v_cAu 
    8000    382.69959   -1164.0743    4263.8467     -1151.46    8621.5368    19.514438          168           88 
    8100     417.9792   -1165.2324    4293.5164   -1151.4552   -5001.9948    19.379586          168           88 
Per MPI rank memory allocation (min/avg/max) = 5.514 | 5.514 | 5.514 Mbytes
Step Temp E_pair Volume TotEng Press Density v_cPt v_cAu 
    8100     417.9792   -1165.2324    4293.5164   -1151.4552   -5001.9948    19.379586          168           88 
    8200    382.36152   -1164.0139    4296.1623   -1151.4108   -2912.3582    19.367651          168           88 
Per MPI rank memory allocation (min/avg/max) = 5.514 | 5.514 | 5.514 Mbytes
Step Temp E_pair Volume TotEng Press Density v_cPt v_cAu 
    8200    382.36152   -1164.0139    4296.1623   -1151.4108   -2912.3582    19.367651          168           88 
    8300    413.54808   -1164.9772    4279.3433   -1151.3461    3900.4663    19.443771          168           88 
Per MPI rank memory allocation (min/avg/max) = 5.514 | 5.514 | 5.514 Mbytes
Step Temp E_pair Volume TotEng Press Density v_cPt v_cAu 
    8300    413.54808   -1164.9772    4279.3433   -1151.3461    3900.4663    19.443771          168           88 
    8400    414.77882   -1164.9615    4294.4551   -1151.2898   -5078.1929     19.37535          168           88 
Per MPI rank memory allocation (min/avg/max) = 5.514 | 5.514 | 5.514 Mbytes
Step Temp E_pair Volume TotEng Press Density v_cPt v_cAu 
    8400    414.77882   -1167.3773    4294.4551   -1153.7056   -6162.3397    19.374624          169           87 
    8500    403.08848   -1166.9384    4281.0321   -1153.6521   -554.42648    19.435373          169           87 
Per MPI rank memory allocation (min/avg/max) = 5.514 | 5.514 | 5.514 Mbytes
Step Temp E_pair Volume TotEng Press Density v_cPt v_cAu 
    8500    403.08848   -1166.9384    4281.0321   -1153.6521   -554.42648    19.435373          169           87 
    8600    378.48113    -1166.016     4263.438   -1153.5407    9808.8465    19.515577          169           87 
Per MPI rank memory allocation (min/avg/max) = 5.514 | 5.514 | 5.514 Mbytes
Step Temp E_pair Volume TotEng Press Density v_cPt v_cAu 
    8600    378.48113    -1166.016     4263.438   -1153.5407    9808.8465    19.515577          169           87 
    8700    416.71652   -1167.2129    4306.0693   -1153.4774   -7569.5862    19.322368          169           87 
Per MPI rank memory allocation (min/avg/max) = 5.514 | 5.514 | 5.514 Mbytes
Step Temp E_pair Volume TotEng Press Density v_cPt v_cAu 
    8700    416.71652   -1167.2129    4306.0693   -1153.4774   -7569.5862    19.322368          169           87 
    8800    393.96277   -1166.3857    4296.6344   -1153.4002   -3428.4116    19.364797          169           87 
Per MPI rank memory allocation (min/avg/max) = 5.514 | 5.514 | 5.514 Mbytes
Step Temp E_pair Volume TotEng Press Density v_cPt v_cAu 
    8800    393.96277   -1166.3857    4296.6344   -1153.4002   -3428.4116    19.364797          169           87 
    8900    401.11848   -1166.4022    4260.1869   -1153.1808    10560.683     19.53047          169           87 
Per MPI rank memory allocation (min/avg/max) = 5.514 | 5.514 | 5.514 Mbytes
Step Temp E_pair Volume TotEng Press Density v_cPt v_cAu 
    8900    401.11848   -1166.4022    4260.1869   -1153.1808    10560.683     19.53047          169           87 
    9000    433.28978   -1167.3594     4297.094   -1153.0776   -5723.7696    19.362726          169           87 
Per MPI rank memory allocation (min/avg/max) = 5.514 | 5.514 | 5.514 Mbytes
Step Temp E_pair Volume TotEng Press Density v_cPt v_cAu 
    9000    433.28978   -1167.3594     4297.094   -1153.0776   -5723.7696    19.362726          169           87 
    9100    424.28715   -1166.9045    4301.4061   -1152.9194   -7673.6298    19.343315          169           87 
Per MPI rank memory allocation (min/avg/max) = 5.514 | 5.514 | 5.514 Mbytes
Step Temp E_pair Volume TotEng Press Density v_cPt v_cAu 
    9100    424.28715   -1166.9045    4301.4061   -1152.9194   -7673.6298    19.343315          169           87 
    9200    401.34301   -1165.9711     4256.584   -1152.7423     11291.53    19.547002          169           87 
Per MPI rank memory allocation (min/avg/max) = 5.514 | 5.514 | 5.514 Mbytes
Step Temp E_pair Volume TotEng Press Density v_cPt v_cAu 
    9200    401.34301   -1168.5759     4256.584   -1155.3471    9921.3553    19.546269          170           86 
    9300    431.43878   -1169.4879    4281.7598   -1155.2671    396.64521    19.431342          170           86 
Per MPI rank memory allocation (min/avg/max) = 5.514 | 5.514 | 5.514 Mbytes
Step Temp E_pair Volume TotEng Press Density v_cPt v_cAu 
    9300    431.43878   -1171.7251    4281.7598   -1157.5043   -715.36199    19.430614          171           85 
    9400    410.48778   -1170.7961    4308.6413   -1157.2659   -9589.7409    19.309387          171           85 
Per MPI rank memory allocation (min/avg/max) = 5.514 | 5.514 | 5.514 Mbytes
Step Temp E_pair Volume TotEng Press Density v_cPt v_cAu 
    9400    410.48778   -1170.7961    4308.6413   -1157.2659   -9589.7409    19.309387          171           85 
    9500    417.30456   -1170.9092    4265.9414   -1157.1542    7565.4006    19.502664          171           85 
Per MPI rank memory allocation (min/avg/max) = 5.514 | 5.514 | 5.514 Mbytes
Step Temp E_pair Volume TotEng Press Density v_cPt v_cAu 
    9500    417.30456   -1170.9092    4265.9414   -1157.1542    7565.4006    19.502664          171           85 
    9600    464.98051   -1172.3307    4272.3539   -1157.0043   -175.28288    19.473392          171           85 
Per MPI rank memory allocation (min/avg/max) = 5.514 | 5.514 | 5.514 Mbytes
Step Temp E_pair Volume TotEng Press Density v_cPt v_cAu 
    9600    464.98051   -1172.3307    4272.3539   -1157.0043   -175.28288    19.473392          171           85 
    9700    417.69606   -1170.6137    4291.1197   -1156.8459   -7181.2068    19.388232          171           85 
Per MPI rank memory allocation (min/avg/max) = 5.514 | 5.514 | 5.514 Mbytes
Step Temp E_pair Volume TotEng Press Density v_cPt v_cAu 
    9700    417.69606     -1168.29    4291.1197   -1154.5221   -6168.3074    19.388958          170           86 
    9800    422.93496   -1168.3585    4270.5888    -1154.418    7982.9916     19.48217          170           86 
Per MPI rank memory allocation (min/avg/max) = 5.514 | 5.514 | 5.514 Mbytes
Step Temp E_pair Volume TotEng Press Density v_cPt v_cAu 
    9800    422.93496   -1168.3585    4270.5888    -1154.418    7982.9916     19.48217          170           86 
    9900    420.79865   -1168.2311     4291.849    -1154.361    -1834.809    19.385663          170           86 
Per MPI rank memory allocation (min/avg/max) = 5.514 | 5.514 | 5.514 Mbytes
Step Temp E_pair Volume TotEng Press Density v_cPt v_cAu 
    9900    420.79865   -1168.2311     4291.849    -1154.361    -1834.809    19.385663          170           86 
   10000    426.65006   -1168.3583    4298.5331   -1154.2953   -6554.2075    19.355519          170           86 
Per MPI rank memory allocation (min/avg/max) = 5.514 | 5.514 | 5.514 Mbytes
Step Temp E_pair Volume TotEng Press Density v_cPt v_cAu 
   10000    426.65006   -1171.0885    4298.5331   -1157.0255   -7661.3075    19.354794          171           85 
   10100    430.55762   -1171.1534    4264.0864   -1156.9617     7780.367    19.511148          171           85 
Per MPI rank memory allocation (min/avg/max) = 5.514 | 5.514 | 5.514 Mbytes
Step Temp E_pair Volume TotEng Press Density v_cPt v_cAu 
   10100    430.55762   -1171.1534    4264.0864   -1156.9617     7780.367    19.511148          171           85 
   10200    443.81132   -1171.6082    4283.3647   -1156.9796   -635.52637    19.423334          171           85 
Per MPI rank memory allocation (min/avg/max) = 5.514 | 5.514 | 5.514 Mbytes
Step Temp E_pair Volume TotEng Press Density v_cPt v_cAu 
   10200    443.81132   -1171.6082    4283.3647   -1156.9796   -635.52637    19.423334          171           85 
   10300    428.46744   -1171.0637    4298.2513   -1156.9408   -6514.1409    19.356063          171           85 
Per MPI rank memory allocation (min/avg/max) = 5.514 | 5.514 | 5.514 Mbytes
Step Temp E_pair Volume TotEng Press Density v_cPt v_cAu 
   10300    428.46744   -1171.0637    4298.2513   -1156.9408   -6514.1409    19.356063          171           85 
   10400    439.41841   -1171.4446    4265.4642   -1156.9608    8413.1842    19.504846          171           85 
Per MPI rank memory allocation (min/avg/max) = 5.514 | 5.514 | 5.514 Mbytes
Step Temp E_pair Volume TotEng Press Density v_cPt v_cAu 
   10400    439.41841   -1171.4446    4265.4642   -1156.9608    8413.1842    19.504846          171           85 
   10500    430.61748   -1171.2687    4289.0715   -1157.0749    -2513.298     19.39749          171           85 
Per MPI rank memory allocation (min/avg/max) = 5.514 | 5.514 | 5.514 Mbytes
Step Temp E_pair Volume TotEng Press Density v_cPt v_cAu 
   10500    430.61748   -1171.2687    4289.0715   -1157.0749    -2513.298     19.39749          171           85 
   10600    421.25226   -1171.0026    4299.5797   -1157.1175   -7178.6639    19.350082          171           85 
Per MPI rank memory allocation (min/avg/max) = 5.514 | 5.514 | 5.514 Mbytes
Step Temp E_pair Volume TotEng Press Density v_cPt v_cAu 
   10600    421.25226   -1171.0026    4299.5797   -1157.1175   -7178.6639    19.350082          171           85 
   10700    423.01356   -1171.1259    4260.6986   -1157.1828    10621.099    19.526662          171           85 
Per MPI rank memory allocation (min/avg/max) = 5.514 | 5.514 | 5.514 Mbytes
Step Temp E_pair Volume TotEng Press Density v_cPt v_cAu 
   10700    423.01356   -1171.1259    4260.6986   -1157.1828    10621.099    19.526662          171           85 
   10800    431.79064   -1171.6099    4286.6184   -1157.3775   -2717.1522    19.408591          171           85 
Per MPI rank memory allocation (min/avg/max) = 5.514 | 5.514 | 5.514 Mbytes
Step Temp E_pair Volume TotEng Press Density v_cPt v_cAu 
   10800    431.79064   -1171.6099    4286.6184   -1157.3775   -2717.1522    19.408591          171           85 
   10900    415.15318    -1171.221    4295.0055    -1157.537   -6130.9316     19.37069          171           85 
Per MPI rank memory allocation (min/avg/max) = 5.514 | 5.514 | 5.514 Mbytes
Step Temp E_pair Volume TotEng Press Density v_cPt v_cAu 
   10900    415.15318    -1171.221    4295.0055    -1157.537   -6130.9316     19.37069          171           85 
   11000    431.78052   -1171.9611    4257.7803    -1157.729    8811.5493    19.540046          171           85 
Per MPI rank memory allocation (min/avg/max) = 5.514 | 5.514 | 5.514 Mbytes
Step Temp E_pair Volume TotEng Press Density v_cPt v_cAu 
   11000    431.78052   -1171.9611    4257.7803    -1157.729    8811.5493    19.540046          171           85 
   11100    424.82825   -1172.0609    4283.6401    -1158.058   -1670.8967    19.422085          171           85 
Per MPI rank memory allocation (min/avg/max) = 5.514 | 5.514 | 5.514 Mbytes
Step Temp E_pair Volume TotEng Press Density v_cPt v_cAu 
   11100    424.82825   -1172.0609    4283.6401    -1158.058   -1670.8967    19.422085          171           85 
   11200    388.17346   -1171.0355    4303.8331   -1158.2408   -8985.0212    19.330959          171           85 
Per MPI rank memory allocation (min/avg/max) = 5.514 | 5.514 | 5.514 Mbytes
Step Temp E_pair Volume TotEng Press Density v_cPt v_cAu 
   11200    388.17346   -1168.5775    4303.8331   -1155.7828   -7758.1971    19.331683          170           86 
   11300    426.94149   -1170.1097    4262.0639   -1156.0372    8518.8243    19.521138          170           86 
Per MPI rank memory allocation (min/avg/max) = 5.514 | 5.514 | 5.514 Mbytes
Step Temp E_pair Volume TotEng Press Density v_cPt v_cAu 
   11300    426.94149   -1170.1097    4262.0639   -1156.0372    8518.8243    19.521138          170           86 
   11400    426.67226   -1170.4006    4279.8303   -1156.3369    555.44659    19.440102          170           86 
Per MPI rank memory allocation (min/avg/max) = 5.514 | 5.514 | 5.514 Mbytes
Step Temp E_pair Volume TotEng Press Density v_cPt v_cAu 
   11400    426.67226   -1170.4006    4279.8303   -1156.3369    555.44659    19.440102          170           86 
   11500     380.5382   -1169.0071    4304.4242    -1156.464   -9848.0883    19.329028          170           86 
Per MPI rank memory allocation (min/avg/max) = 5.514 | 5.514 | 5.514 Mbytes
Step Temp E_pair Volume TotEng Press Density v_cPt v_cAu 
   11500     380.5382   -1169.0071    4304.4242    -1156.464   -9848.0883    19.329028          170           86 
   11600    409.18412   -1170.1163    4260.8119   -1156.6291    9680.8646    19.526874          170           86 
Per MPI rank memory allocation (min/avg/max) = 5.514 | 5.514 | 5.514 Mbytes
Step Temp E_pair Volume TotEng Press Density v_cPt v_cAu 
   11600    409.18412   -1170.1163    4260.8119   -1156.6291    9680.8646    19.526874          170           86 
   11700    418.74127   -1170.6116     4281.148   -1156.8094   -36.072117    19.434119          170           86 
Per MPI rank memory allocation (min/avg/max) = 5.514 | 5.514 | 5.514 Mbytes
Step Temp E_pair Volume TotEng Press Density v_cPt v_cAu 
   11700    418.74127   -1170.6116     4281.148   -1156.8094   -36.072117    19.434119          170           86 
   11800    379.04053   -1169.3104    4306.1408   -1156.8167   -8564.6441    19.321323          170           86 
Per MPI rank memory allocation (min/avg/max) = 5.514 | 5.514 | 5.514 Mbytes
Step Temp E_pair Volume TotEng Press Density v_cPt v_cAu 
   11800    379.04053   -1169.3017    4306.1408    -1156.808   -8582.6912    19.321323          170           86 
   11900    421.11597   -1170.7757    4265.4506   -1156.8952    7039.3539    19.505639          170           86 
Per MPI rank memory allocation (min/avg/max) = 5.514 | 5.514 | 5.514 Mbytes
Step Temp E_pair Volume TotEng Press Density v_cPt v_cAu 
   11900    421.11597   -1170.7757    4265.4506   -1156.8952    7039.3539    19.505639          170           86 
   12000    397.83755    -1170.083    4272.9682   -1156.9697    1758.9791    19.471322          170           86 
Per MPI rank memory allocation (min/avg/max) = 5.514 | 5.514 | 5.514 Mbytes
Step Temp E_pair Volume TotEng Press Density v_cPt v_cAu 
   12000    397.83755   -1172.5388    4272.9682   -1159.4256     786.5346    19.470592          171           85 
   12100    389.35051   -1172.2612    4292.4521   -1159.4276   -7957.1849    19.382213          171           85 
Per MPI rank memory allocation (min/avg/max) = 5.514 | 5.514 | 5.514 Mbytes
Step Temp E_pair Volume TotEng Press Density v_cPt v_cAu 
   12100    389.35051   -1172.2612    4292.4521   -1159.4276   -7957.1849    19.382213          171           85 
   12200     382.8028   -1172.0724    4261.0693   -1159.4547     8544.604    19.524963          171           85 
Per MPI rank memory allocation (min/avg/max) = 5.514 | 5.514 | 5.514 Mbytes
Step Temp E_pair Volume TotEng Press Density v_cPt v_cAu 
   12200     382.8028   -1172.0724    4261.0693   -1159.4547     8544.604    19.524963          171           85 
   12300    413.98118   -1173.1602    4281.0745   -1159.5148   -1274.9607    19.433724          171           85 
Per MPI rank memory allocation (min/avg/max) = 5.514 | 5.514 | 5.514 Mbytes
Step Temp E_pair Volume TotEng Press Density v_cPt v_cAu 
   12300    413.98118   -1173.1602    4281.0745   -1159.5148   -1274.9607    19.433724          171           85 
   12400    405.06343   -1172.8685    4294.0995   -1159.5171   -8255.7275    19.374777          171           85 
Per MPI rank memory allocation (min/avg/max) = 5.514 | 5.514 | 5.514 Mbytes
Step Temp E_pair Volume TotEng Press Density v_cPt v_cAu 
   12400    405.06343   -1172.8685    4294.0995   -1159.5171   -8255.7275    19.374777          171           85 
   12500    399.65293   -1172.7005    4257.3572   -1159.5274    8581.9568    19.541988          171           85 
Per MPI rank memory allocation (min/avg/max) = 5.514 | 5.514 | 5.514 Mbytes
Step Temp E_pair Volume TotEng Press Density v_cPt v_cAu 
   12500    399.65293   -1172.7005    4257.3572   -1159.5274    8581.9568    19.541988          171           85 
   12600    390.92907   -1172.4732    4274.5459   -1159.5877    143.02957    19.463406          171           85 
Per MPI rank memory allocation (min/avg/max) = 5.514 | 5.514 | 5.514 Mbytes
Step Temp E_pair Volume TotEng Press Density v_cPt v_cAu 
   12600    390.92907   -1172.4732    4274.5459   -1159.5877    143.02957    19.463406          171           85 
   12700    407.71011   -1172.9984    4292.7627   -1159.5598   -6544.5153    19.380811          171           85 
Per MPI rank memory allocation (min/avg/max) = 5.514 | 5.514 | 5.514 Mbytes
Step Temp E_pair Volume TotEng Press Density v_cPt v_cAu 
   12700    407.71011   -1172.9984    4292.7627   -1159.5598   -6544.5153    19.380811          171           85 
   12800    403.57655   -1172.8656    4270.7816   -1159.5632    3943.7438    19.480561          171           85 
Per MPI rank memory allocation (min/avg/max) = 5.514 | 5.514 | 5.514 Mbytes
Step Temp E_pair Volume TotEng Press Density v_cPt v_cAu 
   12800    403.57655   -1172.8056    4270.7816   -1159.5032    3713.2799    19.480561          171           85 
   12900    395.17924   -1172.5467    4279.4704   -1159.5211   -583.57964    19.441009          171           85 
Per MPI rank memory allocation (min/avg/max) = 5.514 | 5.514 | 5.514 Mbytes
Step Temp E_pair Volume TotEng Press Density v_cPt v_cAu 
   12900    395.17924   -1174.9856    4279.4704     -1161.96   -1879.4651    19.440281          172           84 
   13000     393.8829   -1174.9505    4279.1097   -1161.9676   -1620.5976    19.441919          172           84 
Per MPI rank memory allocation (min/avg/max) = 5.514 | 5.514 | 5.514 Mbytes
Step Temp E_pair Volume TotEng Press Density v_cPt v_cAu 
   13000     393.8829   -1174.9505    4279.1097   -1161.9676   -1620.5976    19.441919          172           84 
   13100    409.55106   -1175.4652    4259.9318   -1161.9658    3168.2633    19.529445          172           84 
Per MPI rank memory allocation (min/avg/max) = 5.514 | 5.514 | 5.514 Mbytes
Step Temp E_pair Volume TotEng Press Density v_cPt v_cAu 
   13100    409.55106   -1178.0857    4259.9318   -1164.5864    2027.8929    19.528714          173           83 
   13200    414.53611   -1178.2635    4264.1675   -1164.5998    1243.7341    19.509315          173           83 
Per MPI rank memory allocation (min/avg/max) = 5.514 | 5.514 | 5.514 Mbytes
Step Temp E_pair Volume TotEng Press Density v_cPt v_cAu 
   13200    414.53611   -1178.2635    4264.1675   -1164.5998    1243.7341    19.509315          173           83 
   13300    392.92984   -1177.5649    4286.8371   -1164.6134   -2837.0995    19.406147          173           83 
Per MPI rank memory allocation (min/avg/max) = 5.514 | 5.514 | 5.514 Mbytes
Step Temp E_pair Volume TotEng Press Density v_cPt v_cAu 
   13300    392.92984   -1177.5649    4286.8371   -1164.6134   -2837.0995    19.406147          173           83 
   13400    392.75388   -1177.6264    4276.0937   -1164.6807   -4477.0091    19.454903          173           83 
Per MPI rank memory allocation (min/avg/max) = 5.514 | 5.514 | 5.514 Mbytes
Step Temp E_pair Volume TotEng Press Density v_cPt v_cAu 
   13400    392.75388   -1177.6264    4276.0937   -1164.6807   -4477.0091    19.454903          173           83 
   13500      416.261    -1178.321    4241.9834   -1164.6005    11995.001    19.611342          173           83 
Per MPI rank memory allocation (min/avg/max) = 5.514 | 5.514 | 5.514 Mbytes
Step Temp E_pair Volume TotEng Press Density v_cPt v_cAu 
   13500      416.261    -1178.321    4241.9834   -1164.6005    11995.001    19.611342          173           83 
   13600    392.89283   -1177.6577    4292.3025   -1164.7074    -7391.588    19.381437          173           83 
Per MPI rank memory allocation (min/avg/max) = 5.514 | 5.514 | 5.514 Mbytes
Step Temp E_pair Volume TotEng Press Density v_cPt v_cAu 
   13600    392.89283   -1177.6577    4292.3025   -1164.7074    -7391.588    19.381437          173           83 
   13700    382.68818   -1177.3629    4289.4775    -1164.749   -8357.4648    19.394201          173           83 
Per MPI rank memory allocation (min/avg/max) = 5.514 | 5.514 | 5.514 Mbytes
Step Temp E_pair Volume TotEng Press Density v_cPt v_cAu 
   13700    382.68818   -1177.3836    4289.4775   -1164.7697   -8015.6121    19.394201          173           83 
   13800    408.77433   -1178.0732     4228.729   -1164.5995    17826.612    19.672812          173           83 
Per MPI rank memory allocation (min/avg/max) = 5.514 | 5.514 | 5.514 Mbytes
Step Temp E_pair Volume TotEng Press Density v_cPt v_cAu 
   13800    408.77433   -1178.0732     4228.729   -1164.5995    17826.612    19.672812          173           83 
   13900    411.15136   -1178.3404    4287.3062   -1164.7883   -8597.6634    19.404023          173           83 
Per MPI rank memory allocation (min/avg/max) = 5.514 | 5.514 | 5.514 Mbytes
Step Temp E_pair Volume TotEng Press Density v_cPt v_cAu 
   13900    411.15136   -1178.3404    4287.3062   -1164.7883   -8597.6634    19.404023          173           83 
   14000    382.11604    -1177.277    4299.3245    -1164.682   -8654.2702    19.349782          173           83 
Per MPI rank memory allocation (min/avg/max) = 5.514 | 5.514 | 5.514 Mbytes
Step Temp E_pair Volume TotEng Press Density v_cPt v_cAu 
   14000    382.11604    -1177.277    4299.3245    -1164.682   -8654.2702    19.349782          173           83 
   14100    409.64764   -1178.0889    4245.6578   -1164.5863    11730.938     19.59437          173           83 
Per MPI rank memory allocation (min/avg/max) = 5.514 | 5.514 | 5.514 Mbytes
Step Temp E_pair Volume TotEng Press Density v_cPt v_cAu 
   14100    409.64764   -1178.0889    4245.6578   -1164.5863    11730.938     19.59437          173           83 
   14200    417.38507   -1178.4123    4275.6317   -1164.6547   -3343.6155    19.457006          173           83 
Per MPI rank memory allocation (min/avg/max) = 5.514 | 5.514 | 5.514 Mbytes
Step Temp E_pair Volume TotEng Press Density v_cPt v_cAu 
   14200    417.38507   -1178.4123    4275.6317   -1164.6547   -3343.6155    19.457006          173           83 
   14300    396.27144   -1177.6388    4292.5097   -1164.5772   -6867.5606    19.380501          173           83 
Per MPI rank memory allocation (min/avg/max) = 5.514 | 5.514 | 5.514 Mbytes
Step Temp E_pair Volume TotEng Press Density v_cPt v_cAu 
   14300    396.27144   -1177.6388    4292.5097   -1164.5772   -6867.5606    19.380501          173           83 
   14400    391.19772   -1177.4677     4255.813   -1164.5733    7735.2938    19.547614          173           83 
Per MPI rank memory allocation (min/avg/max) = 5.514 | 5.514 | 5.514 Mbytes
Step Temp E_pair Volume TotEng Press Density v_cPt v_cAu 
   14400    391.19772   -1177.4677     4255.813   -1164.5733    7735.2938    19.547614          173           83 
   14500    416.37359    -1178.317    4271.6059   -1164.5927   -1810.5048    19.475343          173           83 
Per MPI rank memory allocation (min/avg/max) = 5.514 | 5.514 | 5.514 Mbytes
Step Temp E_pair Volume TotEng Press Density v_cPt v_cAu 
   14500    416.37359    -1178.317    4271.6059   -1164.5927   -1810.5048    19.475343          173           83 
   14600     399.6625   -1177.7125    4284.6298   -1164.5391   -4814.6407    19.416144          173           83 
Per MPI rank memory allocation (min/avg/max) = 5.514 | 5.514 | 5.514 Mbytes
Step Temp E_pair Volume TotEng Press Density v_cPt v_cAu 
   14600     399.6625   -1177.7125    4284.6298   -1164.5391   -4814.6407    19.416144          173           83 
   14700    385.51789   -1177.2232    4262.0283   -1164.5161    7266.2712    19.519108          173           83 
Per MPI rank memory allocation (min/avg/max) = 5.514 | 5.514 | 5.514 Mbytes
Step Temp E_pair Volume TotEng Press Density v_cPt v_cAu 
   14700    385.51789   -1177.1168    4262.0283   -1164.4096    7517.8557    19.519108          173           83 
   14800    404.33198   -1177.7363    4281.3368    -1164.409   -4054.0165    19.431078          173           83 
Per MPI rank memory allocation (min/avg/max) = 5.514 | 5.514 | 5.514 Mbytes
Step Temp E_pair Volume TotEng Press Density v_cPt v_cAu 
   14800    404.33198   -1177.7363    4281.3368    -1164.409   -4054.0165    19.431078          173           83 
   14900    387.99131    -1177.178    4279.4103   -1164.3893    -1159.781    19.439826          173           83 
Per MPI rank memory allocation (min/avg/max) = 5.514 | 5.514 | 5.514 Mbytes
Step Temp E_pair Volume TotEng Press Density v_cPt v_cAu 
   14900    387.99131    -1177.178    4279.4103   -1164.3893    -1159.781    19.439826          173           83 
   15000    393.32079   -1177.3168    4264.1908   -1164.3524    5026.3898    19.509209          173           83 
Per MPI rank memory allocation (min/avg/max) = 5.514 | 5.514 | 5.514 Mbytes
Step Temp E_pair Volume TotEng Press Density v_cPt v_cAu 
   15000    393.32079   -1177.3168    4264.1908   -1164.3524    5026.3898    19.509209          173           83 
   15100     418.6502   -1178.1302    4280.3353   -1164.3309   -4462.1457    19.435624          173           83 
Per MPI rank memory allocation (min/avg/max) = 5.514 | 5.514 | 5.514 Mbytes
Step Temp E_pair Volume TotEng Press Density v_cPt v_cAu 
   15100     418.6502   -1178.1302    4280.3353   -1164.3309   -4462.1457    19.435624          173           83 
   15200    412.14865   -1177.8889    4275.5313   -1164.3039   -806.67427    19.457463          173           83 
Per MPI rank memory allocation (min/avg/max) = 5.514 | 5.514 | 5.514 Mbytes
Step Temp E_pair Volume TotEng Press Density v_cPt v_cAu 
   15200    412.14865   -1177.8889    4275.5313   -1164.3039   -806.67427    19.457463          173           83 
   15300    409.55696   -1177.7667    4264.6739   -1164.2672    2393.9006    19.506999          173           83 
Per MPI rank memory allocation (min/avg/max) = 5.514 | 5.514 | 5.514 Mbytes
Step Temp E_pair Volume TotEng Press Density v_cPt v_cAu 
   15300    409.55696   -1177.7667    4264.6739   -1164.2672    2393.9006    19.506999          173           83 
   15400    388.84096   -1177.0652    4274.2086   -1164.2485    1087.8204    19.463484          173           83 
Per MPI rank memory allocation (min/avg/max) = 5.514 | 5.514 | 5.514 Mbytes
Step Temp E_pair Volume TotEng Press Density v_cPt v_cAu 
   15400    388.84096   -1177.0652    4274.2086   -1164.2485    1087.8204    19.463484          173           83 
   15500    406.17998   -1177.6005    4284.6522   -1164.2123    -5424.084    19.416043          173           83 
Per MPI rank memory allocation (min/avg/max) = 5.514 | 5.514 | 5.514 Mbytes
Step Temp E_pair Volume TotEng Press Density v_cPt v_cAu 
   15500    406.17998   -1177.6005    4284.6522   -1164.2123    -5424.084    19.416043          173           83 
   15600    410.82537   -1177.7367    4260.4108   -1164.1953     3659.071    19.526519          173           83 
Per MPI rank memory allocation (min/avg/max) = 5.514 | 5.514 | 5.514 Mbytes
Step Temp E_pair Volume TotEng Press Density v_cPt v_cAu 
   15600    410.82537   -1177.7367    4260.4108   -1164.1953     3659.071    19.526519          173           83 
   15700     412.4211    -1177.778    4265.9267   -1164.1841    2430.5704     19.50127          173           83 
Per MPI rank memory allocation (min/avg/max) = 5.514 | 5.514 | 5.514 Mbytes
Step Temp E_pair Volume TotEng Press Density v_cPt v_cAu 
   15700     412.4211    -1177.778    4265.9267   -1164.1841    2430.5704     19.50127          173           83 
   15800     396.1444   -1177.1653    4291.3545   -1164.1079   -6332.7199    19.385718          173           83 
Per MPI rank memory allocation (min/avg/max) = 5.514 | 5.514 | 5.514 Mbytes
Step Temp E_pair Volume TotEng Press Density v_cPt v_cAu 
   15800     396.1444   -1177.1653    4291.3545   -1164.1079   -6332.7199    19.385718          173           83 
   15900    389.80052   -1176.9505    4268.5216   -1164.1021    3917.1872    19.489415          173           83 
Per MPI rank memory allocation (min/avg/max) = 5.514 | 5.514 | 5.514 Mbytes
Step Temp E_pair Volume TotEng Press Density v_cPt v_cAu 
   15900    389.80052   -1176.9505    4268.5216   -1164.1021    3917.1872    19.489415          173           83 
   16000    430.14891    -1178.229    4261.6202   -1164.0507    1253.4586    19.520977          173           83 
Per MPI rank memory allocation (min/avg/max) = 5.514 | 5.514 | 5.514 Mbytes
Step Temp E_pair Volume TotEng Press Density v_cPt v_cAu 
   16000    430.14891    -1178.229    4261.6202   -1164.0507    1253.4586    19.520977          173           83 
   16100    392.98538   -1176.9948    4278.2491   -1164.0415   -1519.2513    19.445102          173           83 
Per MPI rank memory allocation (min/avg/max) = 5.514 | 5.514 | 5.514 Mbytes
Step Temp E_pair Volume TotEng Press Density v_cPt v_cAu 
   16100    392.98538    -1177.002    4278.2491   -1164.0487   -1682.3113    19.445102          173           83 
   16200    389.95869   -1176.8717     4279.453   -1164.0182   -424.73051    19.439632          173           83 
Per MPI rank memory allocation (min/avg/max) = 5.514 | 5.514 | 5.514 Mbytes
Step Temp E_pair Volume TotEng Press Density v_cPt v_cAu 
   16200    389.95869   -1179.2311     4279.453   -1166.3775   -1747.4809    19.438904          174           82 
   16300    420.02377   -1180.1939    4265.0052   -1166.3494    3732.2258    19.504753          174           82 
Per MPI rank memory allocation (min/avg/max) = 5.514 | 5.514 | 5.514 Mbytes
Step Temp E_pair Volume TotEng Press Density v_cPt v_cAu 
   16300    420.02377   -1180.1939    4265.0052   -1166.3494    3732.2258    19.504753          174           82 
   16400    417.81635   -1180.1152    4272.5813   -1166.3434   -768.25904    19.470168          174           82 
Per MPI rank memory allocation (min/avg/max) = 5.514 | 5.514 | 5.514 Mbytes
Step Temp E_pair Volume TotEng Press Density v_cPt v_cAu 
   16400    417.81635   -1180.1152    4272.5813   -1166.3434   -768.25904    19.470168          174           82 
   16500    422.07213   -1180.2622    4274.2959   -1166.3501   -5882.6062    19.462357          174           82 
Per MPI rank memory allocation (min/avg/max) = 5.514 | 5.514 | 5.514 Mbytes
Step Temp E_pair Volume TotEng Press Density v_cPt v_cAu 
   16500    422.07213   -1180.2622    4274.2959   -1166.3501   -5882.6062    19.462357          174           82 
   16600    420.58304   -1180.2063    4247.0481   -1166.3433     7602.386    19.587222          174           82 
Per MPI rank memory allocation (min/avg/max) = 5.514 | 5.514 | 5.514 Mbytes
Step Temp E_pair Volume TotEng Press Density v_cPt v_cAu 
   16600    420.58304   -1180.2063    4247.0481   -1166.3433     7602.386    19.587222          174           82 
   16700    397.95613   -1179.5328    4269.3466   -1166.4156    46.369846    19.484919          174           82 
Per MPI rank memory allocation (min/avg/max) = 5.514 | 5.514 | 5.514 Mbytes
Step Temp E_pair Volume TotEng Press Density v_cPt v_cAu 
   16700    397.95613   -1179.5328    4269.3466   -1166.4156    46.369846    19.484919          174           82 
   16800    423.39817   -1180.3495    4289.5112   -1166.3938   -9510.0941    19.393322          174           82 
Per MPI rank memory allocation (min/avg/max) = 5.514 | 5.514 | 5.514 Mbytes
Step Temp E_pair Volume TotEng Press Density v_cPt v_cAu 
   16800    423.39817   -1180.3495    4289.5112   -1166.3938   -9510.0941    19.393322          174           82 
   16900     423.8236   -1180.3917    4251.6126   -1166.4219    7718.3028    19.566193          174           82 
Per MPI rank memory allocation (min/avg/max) = 5.514 | 5.514 | 5.514 Mbytes
Step Temp E_pair Volume TotEng Press Density v_cPt v_cAu 
   16900     423.8236   -1180.3917    4251.6126   -1166.4219    7718.3028    19.566193          174           82 
   17000    422.65652    -1180.442    4267.8326   -1166.5107   -863.47121    19.491831          174           82 
Per MPI rank memory allocation (min/avg/max) = 5.514 | 5.514 | 5.514 Mbytes
Step Temp E_pair Volume TotEng Press Density v_cPt v_cAu 
   17000    422.65652    -1180.442    4267.8326   -1166.5107   -863.47121    19.491831          174           82 
   17100    381.31503   -1179.1028    4282.6645   -1166.5341   -5604.4957    19.424327          174           82 
Per MPI rank memory allocation (min/avg/max) = 5.514 | 5.514 | 5.514 Mbytes
Step Temp E_pair Volume TotEng Press Density v_cPt v_cAu 
   17100    381.31503   -1179.1028    4282.6645   -1166.5341   -5604.4957    19.424327          174           82 
   17200    435.96803    -1180.984    4252.9641   -1166.6139      4740.01    19.559975          174           82 
Per MPI rank memory allocation (min/avg/max) = 5.514 | 5.514 | 5.514 Mbytes
Step Temp E_pair Volume TotEng Press Density v_cPt v_cAu 
   17200    435.96803    -1180.984    4252.9641   -1166.6139      4740.01    19.559975          174           82 
   17300    410.29622   -1180.2708    4263.7306   -1166.7469     1353.996    19.510584          174           82 
Per MPI rank memory allocation (min/avg/max) = 5.514 | 5.514 | 5.514 Mbytes
Step Temp E_pair Volume TotEng Press Density v_cPt v_cAu 
   17300    410.29622   -1180.2708    4263.7306   -1166.7469     1353.996    19.510584          174           82 
   17400    410.52436   -1180.3417    4288.8376   -1166.8103   -6530.7679    19.396368          174           82 
Per MPI rank memory allocation (min/avg/max) = 5.514 | 5.514 | 5.514 Mbytes
Step Temp E_pair Volume TotEng Press Density v_cPt v_cAu 
   17400    410.52436   -1180.3417    4288.8376   -1166.8103   -6530.7679    19.396368          174           82 
   17500    398.39418   -1180.1007    4265.3735   -1166.9691    2997.3432    19.503069          174           82 
Per MPI rank memory allocation (min/avg/max) = 5.514 | 5.514 | 5.514 Mbytes
Step Temp E_pair Volume TotEng Press Density v_cPt v_cAu 
   17500    398.39418   -1180.1007    4265.3735   -1166.9691    2997.3432    19.503069          174           82 
   17600    407.59095   -1180.5341    4262.7926   -1167.0993    611.19491    19.514877          174           82 
Per MPI rank memory allocation (min/avg/max) = 5.514 | 5.514 | 5.514 Mbytes
Step Temp E_pair Volume TotEng Press Density v_cPt v_cAu 
   17600    407.59095   -1180.5341    4262.7926   -1167.0993    611.19491    19.514877          174           82 
   17700    393.06374   -1180.2134    4272.4862   -1167.2575   -2101.3986    19.470601          174           82 
Per MPI rank memory allocation (min/avg/max) = 5.514 | 5.514 | 5.514 Mbytes
Step Temp E_pair Volume TotEng Press Density v_cPt v_cAu 
   17700    393.06374   -1180.2134    4272.4862   -1167.2575   -2101.3986    19.470601          174           82 
   17800    385.66463   -1180.1408    4263.3204   -1167.4288    2487.2614    19.512461          174           82 
Per MPI rank memory allocation (min/avg/max) = 5.514 | 5.514 | 5.514 Mbytes
Step Temp E_pair Volume TotEng Press Density v_cPt v_cAu 
   17800    385.66463   -1180.1408    4263.3204   -1167.4288    2487.2614    19.512461          174           82 
   17900    410.09062    -1181.123    4264.2572   -1167.6059    447.06246    19.508175          174           82 
Per MPI rank memory allocation (min/avg/max) = 5.514 | 5.514 | 5.514 Mbytes
Step Temp E_pair Volume TotEng Press Density v_cPt v_cAu 
   17900    410.09062    -1181.123    4264.2572   -1167.6059    447.06246    19.508175          174           82 
   18000    388.12324   -1180.5725    4276.2759   -1167.7794   -2224.7291    19.453346          174           82 
Per MPI rank memory allocation (min/avg/max) = 5.514 | 5.514 | 5.514 Mbytes
Step Temp E_pair Volume TotEng Press Density v_cPt v_cAu 
   18000    388.12324   -1180.5725    4276.2759   -1167.7794   -2224.7291    19.453346          174           82 
   18100    391.06269   -1180.8368    4273.7415   -1167.9468   -2354.3649    19.464882          174           82 
Per MPI rank memory allocation (min/avg/max) = 5.514 | 5.514 | 5.514 Mbytes
Step Temp E_pair Volume TotEng Press Density v_cPt v_cAu 
   18100    391.06269   -1180.8368    4273.7415   -1167.9468   -2354.3649    19.464882          174           82 
   18200    377.24203   -1180.5098    4255.3418   -1168.0754    5455.2051    19.549046          174           82 
Per MPI rank memory allocation (min/avg/max) = 5.514 | 5.514 | 5.514 Mbytes
Step Temp E_pair Volume TotEng Press Density v_cPt v_cAu 
   18200    377.24203   -1180.5098    4255.3418   -1168.0754    5455.2051    19.549046          174           82 
   18300    380.24548   -1180.7482    4270.2906   -1168.2148   -2866.1135    19.480612          174           82 
Per MPI rank memory allocation (min/avg/max) = 5.514 | 5.514 | 5.514 Mbytes
Step Temp E_pair Volume TotEng Press Density v_cPt v_cAu 
   18300    380.24548   -1180.7482    4270.2906   -1168.2148   -2866.1135    19.480612          174           82 
   18400    391.77081   -1181.2416    4267.6524   -1168.3283    57.074328    19.492655          174           82 
Per MPI rank memory allocation (min/avg/max) = 5.514 | 5.514 | 5.514 Mbytes
Step Temp E_pair Volume TotEng Press Density v_cPt v_cAu 
   18400    391.77081   -1181.2416    4267.6524   -1168.3283    57.074328    19.492655          174           82 
   18500    370.75448     -1180.65     4265.661   -1168.4294    3343.8145    19.501755          174           82 
Per MPI rank memory allocation (min/avg/max) = 5.514 | 5.514 | 5.514 Mbytes
Step Temp E_pair Volume TotEng Press Density v_cPt v_cAu 
   18500    370.75448     -1180.65     4265.661   -1168.4294    3343.8145    19.501755          174           82 
   18600    355.31991   -1180.2121    4277.2401   -1168.5003   -6435.7752    19.448961          174           82 
Per MPI rank memory allocation (min/avg/max) = 5.514 | 5.514 | 5.514 Mbytes
Step Temp E_pair Volume TotEng Press Density v_cPt v_cAu 
   18600    355.31991   -1180.2121    4277.2401   -1168.5003   -6435.7752    19.448961          174           82 
   18700    391.79242   -1181.4778    4245.6218   -1168.5638    7115.5748    19.593802          174           82 
Per MPI rank memory allocation (min/avg/max) = 5.514 | 5.514 | 5.514 Mbytes
Step Temp E_pair Volume TotEng Press Density v_cPt v_cAu 
   18700    391.79242   -1181.4778    4245.6218   -1168.5638    7115.5748    19.593802          174           82 
   18800    372.36043   -1180.9278    4259.6541   -1168.6543     1998.643    19.529256          174           82 
Per MPI rank memory allocation (min/avg/max) = 5.514 | 5.514 | 5.514 Mbytes
Step Temp E_pair Volume TotEng Press Density v_cPt v_cAu 
   18800    372.36043   -1180.9278    4259.6541   -1168.6543     1998.643    19.529256          174           82 
   18900    374.16492   -1180.9463    4285.6231   -1168.6133   -10060.747    19.410917          174           82 
Per MPI rank memory allocation (min/avg/max) = 5.514 | 5.514 | 5.514 Mbytes
Step Temp E_pair Volume TotEng Press Density v_cPt v_cAu 
   18900    374.16492   -1180.9463    4285.6231   -1168.6133   -10060.747    19.410917          174           82 
   19000    362.99819   -1180.6014    4244.2912   -1168.6365    10870.637    19.599945          174           82 
Per MPI rank memory allocation (min/avg/max) = 5.514 | 5.514 | 5.514 Mbytes
Step Temp E_pair Volume TotEng Press Density v_cPt v_cAu 
   19000    362.99819   -1180.6014    4244.2912   -1168.6365    10870.637    19.599945          174           82 
   19100    399.39195   -1181.8602    4268.2229   -1168.6958   -1485.9714    19.490049          174           82 
Per MPI rank memory allocation (min/avg/max) = 5.514 | 5.514 | 5.514 Mbytes
Step Temp E_pair Volume TotEng Press Density v_cPt v_cAu 
   19100    399.39195   -1181.8602    4268.2229   -1168.6958   -1485.9714    19.490049          174           82 
   19200    359.92502   -1180.4614    4292.4684   -1168.5978   -10627.065    19.379962          174           82 
Per MPI rank memory allocation (min/avg/max) = 5.514 | 5.514 | 5.514 Mbytes
Step Temp E_pair Volume TotEng Press Density v_cPt v_cAu 
   19200    359.92502   -1180.4614    4292.4684   -1168.5978   -10627.065    19.379962          174           82 
   19300    387.52946   -1181.3772    4241.4269   -1168.6037    8889.4134    19.613181          174           82 
Per MPI rank memory allocation (min/avg/max) = 5.514 | 5.514 | 5.514 Mbytes
Step Temp E_pair Volume TotEng Press Density v_cPt v_cAu 
   19300    387.52946   -1181.3772    4241.4269   -1168.6037    8889.4134    19.613181          174           82 
   19400    365.52176   -1180.6466    4248.6856   -1168.5986    6525.0641    19.579673          174           82 
Per MPI rank memory allocation (min/avg/max) = 5.514 | 5.514 | 5.514 Mbytes
Step Temp E_pair Volume TotEng Press Density v_cPt v_cAu 
   19400    365.52176   -1180.6466    4248.6856   -1168.5986    6525.0641    19.579673          174           82 
   19500    375.78135   -1180.8191    4298.4135   -1168.4328   -13278.878    19.353158          174           82 
Per MPI rank memory allocation (min/avg/max) = 5.514 | 5.514 | 5.514 Mbytes
Step Temp E_pair Volume TotEng Press Density v_cPt v_cAu 
   19500    375.78135   -1180.8191    4298.4135   -1168.4328   -13278.878    19.353158          174           82 
   19600    391.26038   -1181.3757    4255.4145   -1168.4792     5607.214    19.548713          174           82 
Per MPI rank memory allocation (min/avg/max) = 5.514 | 5.514 | 5.514 Mbytes
Step Temp E_pair Volume TotEng Press Density v_cPt v_cAu 
   19600    391.26038   -1181.3757    4255.4145   -1168.4792     5607.214    19.548713          174           82 
   19700    366.96046   -1180.4777    4248.0491   -1168.3822    9606.1508    19.582607          174           82 
Per MPI rank memory allocation (min/avg/max) = 5.514 | 5.514 | 5.514 Mbytes
Step Temp E_pair Volume TotEng Press Density v_cPt v_cAu 
   19700    366.96046   -1180.4777    4248.0491   -1168.3822    9606.1508    19.582607          174           82 
   19800    383.46983    -1180.846    4299.3126   -1168.2063   -15791.832     19.34911          174           82 
Per MPI rank memory allocation (min/avg/max) = 5.514 | 5.514 | 5.514 Mbytes
Step Temp E_pair Volume TotEng Press Density v_cPt v_cAu 
   19800    383.46983    -1180.846    4299.3126   -1168.2063   -15791.832     19.34911          174           82 
   19900    378.46108   -1180.7189    4248.4788   -1168.2443    7932.3487    19.580626          174           82 
Per MPI rank memory allocation (min/avg/max) = 5.514 | 5.514 | 5.514 Mbytes
Step Temp E_pair Volume TotEng Press Density v_cPt v_cAu 
   19900    378.46108   -1180.7189    4248.4788   -1168.2443    7932.3487    19.580626          174           82 
   20000    370.02712   -1180.3347    4244.5177   -1168.1382    10186.333    19.598899          174           82 
Per MPI rank memory allocation (min/avg/max) = 5.514 | 5.514 | 5.514 Mbytes
Step Temp E_pair Volume TotEng Press Density v_cPt v_cAu 
   20000    370.02712   -1182.7772    4244.5177   -1170.5806    8928.6123    19.598165          175           81 
   20100    369.59414   -1182.5529    4298.0578   -1170.3706   -13809.935    19.354034          175           81 
Per MPI rank memory allocation (min/avg/max) = 5.514 | 5.514 | 5.514 Mbytes
Step Temp E_pair Volume TotEng Press Density v_cPt v_cAu 
   20100    369.59414   -1182.5529    4298.0578   -1170.3706   -13809.935    19.354034          175           81 
   20200      417.294   -1184.1592    4253.1448   -1170.4047    5295.8587    19.558412          175           81 
Per MPI rank memory allocation (min/avg/max) = 5.514 | 5.514 | 5.514 Mbytes
Step Temp E_pair Volume TotEng Press Density v_cPt v_cAu 
   20200      417.294   -1184.1592    4253.1448   -1170.4047    5295.8587    19.558412          175           81 
   20300    368.83082   -1182.4382    4243.7628   -1170.2811    10838.205    19.601651          175           81 
Per MPI rank memory allocation (min/avg/max) = 5.514 | 5.514 | 5.514 Mbytes
Step Temp E_pair Volume TotEng Press Density v_cPt v_cAu 
[...]
  394600    436.63929   -1396.0118      4048.98   -1381.6196    9814.3248    20.482285          256            0 
  394700    418.91583   -1395.2275    4081.1975   -1381.4195   -8530.1097    20.320595          256            0 
Per MPI rank memory allocation (min/avg/max) = 5.514 | 5.514 | 5.514 Mbytes
Step Temp E_pair Volume TotEng Press Density v_cPt v_cAu 
  394700    418.91583   -1395.2275    4081.1975   -1381.4195   -8530.1097    20.320595          256            0 
  394800    451.27225    -1396.108    4065.9809   -1381.2334   -62.349657    20.396643          256            0 
Per MPI rank memory allocation (min/avg/max) = 5.514 | 5.514 | 5.514 Mbytes
Step Temp E_pair Volume TotEng Press Density v_cPt v_cAu 
  394800    451.27225    -1396.108    4065.9809   -1381.2334   -62.349657    20.396643          256            0 
  394900    421.59461   -1394.8788    4053.2801   -1380.9824    9091.9278    20.460555          256            0 
Per MPI rank memory allocation (min/avg/max) = 5.514 | 5.514 | 5.514 Mbytes
Step Temp E_pair Volume TotEng Press Density v_cPt v_cAu 
  394900    421.59461   -1394.8788    4053.2801   -1380.9824    9091.9278    20.460555          256            0 
  395000    433.61404   -1395.0078      4086.28   -1380.7153   -10927.905     20.29532          256            0 
Per MPI rank memory allocation (min/avg/max) = 5.514 | 5.514 | 5.514 Mbytes
Step Temp E_pair Volume TotEng Press Density v_cPt v_cAu 
  395000    433.61404   -1395.0078      4086.28   -1380.7153   -10927.905     20.29532          256            0 
  395100    448.90424   -1395.3539    4055.9731   -1380.5574     6288.686     20.44697          256            0 
Per MPI rank memory allocation (min/avg/max) = 5.514 | 5.514 | 5.514 Mbytes
Step Temp E_pair Volume TotEng Press Density v_cPt v_cAu 
  395100    448.90424   -1395.3539    4055.9731   -1380.5574     6288.686     20.44697          256            0 
  395200    449.89336   -1395.2249    4062.3458   -1380.3958    2839.6522    20.414895          256            0 
Per MPI rank memory allocation (min/avg/max) = 5.514 | 5.514 | 5.514 Mbytes
Step Temp E_pair Volume TotEng Press Density v_cPt v_cAu 
  395200    449.89336   -1395.2249    4062.3458   -1380.3958    2839.6522    20.414895          256            0 
  395300    461.15659   -1395.3854    4087.2838    -1380.185   -11555.547    20.290336          256            0 
Per MPI rank memory allocation (min/avg/max) = 5.514 | 5.514 | 5.514 Mbytes
Step Temp E_pair Volume TotEng Press Density v_cPt v_cAu 
  395300    461.15659   -1395.3854    4087.2838    -1380.185   -11555.547    20.290336          256            0 
  395400    439.97818   -1394.5707    4050.2008   -1380.0684    11400.794    20.476111          256            0 
Per MPI rank memory allocation (min/avg/max) = 5.514 | 5.514 | 5.514 Mbytes
Step Temp E_pair Volume TotEng Press Density v_cPt v_cAu 
  395400    439.97818   -1394.5707    4050.2008   -1380.0684    11400.794    20.476111          256            0 
  395500    451.69054   -1394.9289    4073.9301   -1380.0406   -2852.0203    20.356844          256            0 
Per MPI rank memory allocation (min/avg/max) = 5.514 | 5.514 | 5.514 Mbytes
Step Temp E_pair Volume TotEng Press Density v_cPt v_cAu 
  395500    451.69054   -1394.9289    4073.9301   -1380.0406   -2852.0203    20.356844          256            0 
  395600    450.63431   -1394.8328    4083.0625   -1379.9793   -8367.8031    20.311314          256            0 
Per MPI rank memory allocation (min/avg/max) = 5.514 | 5.514 | 5.514 Mbytes
Step Temp E_pair Volume TotEng Press Density v_cPt v_cAu 
  395600    450.63431   -1394.8328    4083.0625   -1379.9793   -8367.8031    20.311314          256            0 
  395700    465.14758   -1395.2616    4046.7216   -1379.9297    12679.767    20.493716          256            0 
Per MPI rank memory allocation (min/avg/max) = 5.514 | 5.514 | 5.514 Mbytes
Step Temp E_pair Volume TotEng Press Density v_cPt v_cAu 
  395700    465.14758   -1395.2616    4046.7216   -1379.9297    12679.767    20.493716          256            0 
  395800    450.11016     -1394.87    4082.4317   -1380.0338   -7841.0277    20.314452          256            0 
Per MPI rank memory allocation (min/avg/max) = 5.514 | 5.514 | 5.514 Mbytes
Step Temp E_pair Volume TotEng Press Density v_cPt v_cAu 
  395800    450.11016     -1394.87    4082.4317   -1380.0338   -7841.0277    20.314452          256            0 
  395900    424.97494   -1394.1434    4073.8749   -1380.1357   -2685.3792    20.357121          256            0 
Per MPI rank memory allocation (min/avg/max) = 5.514 | 5.514 | 5.514 Mbytes
Step Temp E_pair Volume TotEng Press Density v_cPt v_cAu 
  395900    424.97494   -1394.1434    4073.8749   -1380.1357   -2685.3792    20.357121          256            0 
  396000    493.00156   -1396.4137    4047.5935   -1380.1637    10877.714    20.489301          256            0 
Per MPI rank memory allocation (min/avg/max) = 5.514 | 5.514 | 5.514 Mbytes
Step Temp E_pair Volume TotEng Press Density v_cPt v_cAu 
  396000    493.00156   -1396.4137    4047.5935   -1380.1637    10877.714    20.489301          256            0 
  396100    448.23118   -1395.1042    4090.7144   -1380.3299    -13356.39     20.27332          256            0 
Per MPI rank memory allocation (min/avg/max) = 5.514 | 5.514 | 5.514 Mbytes
Step Temp E_pair Volume TotEng Press Density v_cPt v_cAu 
  396100    448.23118   -1395.1042    4090.7144   -1380.3299    -13356.39     20.27332          256            0 
  396200    416.51141   -1394.3474    4060.9509   -1380.6187    4594.4224    20.421907          256            0 
Per MPI rank memory allocation (min/avg/max) = 5.514 | 5.514 | 5.514 Mbytes
Step Temp E_pair Volume TotEng Press Density v_cPt v_cAu 
  396200    416.51141   -1394.3474    4060.9509   -1380.6187    4594.4224    20.421907          256            0 
  396300    438.55123   -1395.2446    4051.3881   -1380.7894    9244.6454     20.47011          256            0 
Per MPI rank memory allocation (min/avg/max) = 5.514 | 5.514 | 5.514 Mbytes
Step Temp E_pair Volume TotEng Press Density v_cPt v_cAu 
  396300    438.55123   -1395.2446    4051.3881   -1380.7894    9244.6454     20.47011          256            0 
  396400    428.48846   -1395.0781     4093.421   -1380.9545   -14849.187    20.259915          256            0 
Per MPI rank memory allocation (min/avg/max) = 5.514 | 5.514 | 5.514 Mbytes
Step Temp E_pair Volume TotEng Press Density v_cPt v_cAu 
  396400    428.48846   -1395.0781     4093.421   -1380.9545   -14849.187    20.259915          256            0 
  396500    443.83949   -1395.9049    4049.9915   -1381.2754     9059.383    20.477169          256            0 
Per MPI rank memory allocation (min/avg/max) = 5.514 | 5.514 | 5.514 Mbytes
Step Temp E_pair Volume TotEng Press Density v_cPt v_cAu 
  396500    443.83949   -1395.9049    4049.9915   -1381.2754     9059.383    20.477169          256            0 
  396600    452.92251   -1396.4864    4061.3175   -1381.5574    1715.3583    20.420063          256            0 
Per MPI rank memory allocation (min/avg/max) = 5.514 | 5.514 | 5.514 Mbytes
Step Temp E_pair Volume TotEng Press Density v_cPt v_cAu 
  396600    452.92251   -1396.4864    4061.3175   -1381.5574    1715.3583    20.420063          256            0 
  396700    413.33471   -1395.2905     4089.161   -1381.6664   -13630.804    20.281021          256            0 
Per MPI rank memory allocation (min/avg/max) = 5.514 | 5.514 | 5.514 Mbytes
Step Temp E_pair Volume TotEng Press Density v_cPt v_cAu 
  396700    413.33471   -1395.2905     4089.161   -1381.6664   -13630.804    20.281021          256            0 
  396800    422.90152   -1395.7733    4039.5354   -1381.8339    15847.581    20.530173          256            0 
Per MPI rank memory allocation (min/avg/max) = 5.514 | 5.514 | 5.514 Mbytes
Step Temp E_pair Volume TotEng Press Density v_cPt v_cAu 
  396800    422.90152   -1395.7733    4039.5354   -1381.8339    15847.581    20.530173          256            0 
  396900    400.72162   -1395.3045    4073.7052   -1382.0962   -4267.0355    20.357968          256            0 
Per MPI rank memory allocation (min/avg/max) = 5.514 | 5.514 | 5.514 Mbytes
Step Temp E_pair Volume TotEng Press Density v_cPt v_cAu 
  396900    400.72162   -1395.3045    4073.7052   -1382.0962   -4267.0355    20.357968          256            0 
  397000    429.93616   -1396.3777    4081.0292   -1382.2065   -9881.4918    20.321433          256            0 
Per MPI rank memory allocation (min/avg/max) = 5.514 | 5.514 | 5.514 Mbytes
Step Temp E_pair Volume TotEng Press Density v_cPt v_cAu 
  397000    429.93616   -1396.3777    4081.0292   -1382.2065   -9881.4918    20.321433          256            0 
  397100     419.7288   -1396.0307    4035.6095   -1382.1959    17094.685    20.550145          256            0 
Per MPI rank memory allocation (min/avg/max) = 5.514 | 5.514 | 5.514 Mbytes
Step Temp E_pair Volume TotEng Press Density v_cPt v_cAu 
  397100     419.7288   -1396.0307    4035.6095   -1382.1959    17094.685    20.550145          256            0 
  397200     418.8542   -1396.1676    4087.1377   -1382.3616   -13074.217    20.291061          256            0 
Per MPI rank memory allocation (min/avg/max) = 5.514 | 5.514 | 5.514 Mbytes
Step Temp E_pair Volume TotEng Press Density v_cPt v_cAu 
  397200     418.8542   -1396.1676    4087.1377   -1382.3616   -13074.217    20.291061          256            0 
  397300     411.7671   -1396.1211    4066.0512   -1382.5487   -1411.0836    20.396291          256            0 
Per MPI rank memory allocation (min/avg/max) = 5.514 | 5.514 | 5.514 Mbytes
Step Temp E_pair Volume TotEng Press Density v_cPt v_cAu 
  397300     411.7671   -1396.1211    4066.0512   -1382.5487   -1411.0836    20.396291          256            0 
  397400     409.3037   -1396.0109    4039.7047   -1382.5197    14753.836    20.529313          256            0 
Per MPI rank memory allocation (min/avg/max) = 5.514 | 5.514 | 5.514 Mbytes
Step Temp E_pair Volume TotEng Press Density v_cPt v_cAu 
  397400     409.3037   -1396.0109    4039.7047   -1382.5197    14753.836    20.529313          256            0 
  397500    394.01691   -1395.5292    4093.7812   -1382.5419   -16199.266    20.258132          256            0 
Per MPI rank memory allocation (min/avg/max) = 5.514 | 5.514 | 5.514 Mbytes
Step Temp E_pair Volume TotEng Press Density v_cPt v_cAu 
  397500    394.01691   -1395.5292    4093.7812   -1382.5419   -16199.266    20.258132          256            0 
  397600    412.05662   -1396.3345    4051.8998   -1382.7525    6539.7849    20.467525          256            0 
Per MPI rank memory allocation (min/avg/max) = 5.514 | 5.514 | 5.514 Mbytes
Step Temp E_pair Volume TotEng Press Density v_cPt v_cAu 
  397600    412.05662   -1396.3345    4051.8998   -1382.7525    6539.7849    20.467525          256            0 
  397700     451.4868   -1397.6974    4050.7806   -1382.8158    6623.6203     20.47318          256            0 
Per MPI rank memory allocation (min/avg/max) = 5.514 | 5.514 | 5.514 Mbytes
Step Temp E_pair Volume TotEng Press Density v_cPt v_cAu 
  397700     451.4868   -1397.6974    4050.7806   -1382.8158    6623.6203     20.47318          256            0 
  397800    372.54064   -1395.0426    4092.3321   -1382.7631   -15395.536    20.265306          256            0 
Per MPI rank memory allocation (min/avg/max) = 5.514 | 5.514 | 5.514 Mbytes
Step Temp E_pair Volume TotEng Press Density v_cPt v_cAu 
  397800    372.54064   -1395.0426    4092.3321   -1382.7631   -15395.536    20.265306          256            0 
  397900    413.00535   -1396.5025    4041.6582   -1382.8893    13274.974     20.51939          256            0 
Per MPI rank memory allocation (min/avg/max) = 5.514 | 5.514 | 5.514 Mbytes
Step Temp E_pair Volume TotEng Press Density v_cPt v_cAu 
  397900    413.00535   -1396.5025    4041.6582   -1382.8893    13274.974     20.51939          256            0 
  398000    416.77448   -1396.7841    4063.1851   -1383.0467    14.560332    20.410678          256            0 
Per MPI rank memory allocation (min/avg/max) = 5.514 | 5.514 | 5.514 Mbytes
Step Temp E_pair Volume TotEng Press Density v_cPt v_cAu 
  398000    416.77448   -1396.7841    4063.1851   -1383.0467    14.560332    20.410678          256            0 
  398100    400.43753   -1396.2202     4087.903   -1383.0212   -14414.165    20.287263          256            0 
Per MPI rank memory allocation (min/avg/max) = 5.514 | 5.514 | 5.514 Mbytes
Step Temp E_pair Volume TotEng Press Density v_cPt v_cAu 
  398100    400.43753   -1396.2202     4087.903   -1383.0212   -14414.165    20.287263          256            0 
  398200    411.89406   -1396.6322    4035.1059   -1383.0557    16743.549     20.55271          256            0 
Per MPI rank memory allocation (min/avg/max) = 5.514 | 5.514 | 5.514 Mbytes
Step Temp E_pair Volume TotEng Press Density v_cPt v_cAu 
  398200    411.89406   -1396.6322    4035.1059   -1383.0557    16743.549     20.55271          256            0 
  398300    388.11414    -1396.051    4075.2751   -1383.2583   -6310.9545    20.350126          256            0 
Per MPI rank memory allocation (min/avg/max) = 5.514 | 5.514 | 5.514 Mbytes
Step Temp E_pair Volume TotEng Press Density v_cPt v_cAu 
  398300    388.11414    -1396.051    4075.2751   -1383.2583   -6310.9545    20.350126          256            0 
  398400    387.54484   -1396.1007    4076.0061   -1383.3267   -7392.8476    20.346476          256            0 
Per MPI rank memory allocation (min/avg/max) = 5.514 | 5.514 | 5.514 Mbytes
Step Temp E_pair Volume TotEng Press Density v_cPt v_cAu 
  398400    387.54484   -1396.1007    4076.0061   -1383.3267   -7392.8476    20.346476          256            0 
  398500    425.97701   -1397.3045    4035.7128   -1383.2637    15345.891    20.549619          256            0 
Per MPI rank memory allocation (min/avg/max) = 5.514 | 5.514 | 5.514 Mbytes
Step Temp E_pair Volume TotEng Press Density v_cPt v_cAu 
  398500    425.97701   -1397.3045    4035.7128   -1383.2637    15345.891    20.549619          256            0 
  398600    412.48699   -1396.9704    4085.0825   -1383.3743   -13598.311     20.30127          256            0 
Per MPI rank memory allocation (min/avg/max) = 5.514 | 5.514 | 5.514 Mbytes
Step Temp E_pair Volume TotEng Press Density v_cPt v_cAu 
  398600    412.48699   -1396.9704    4085.0825   -1383.3743   -13598.311     20.30127          256            0 
  398700    383.30849   -1396.1346    4062.8076   -1383.5002    834.78751    20.412574          256            0 
Per MPI rank memory allocation (min/avg/max) = 5.514 | 5.514 | 5.514 Mbytes
Step Temp E_pair Volume TotEng Press Density v_cPt v_cAu 
  398700    383.30849   -1396.1346    4062.8076   -1383.5002    834.78751    20.412574          256            0 
  398800    394.15607   -1396.4914    4043.9391   -1383.4995    11798.978    20.507817          256            0 
Per MPI rank memory allocation (min/avg/max) = 5.514 | 5.514 | 5.514 Mbytes
Step Temp E_pair Volume TotEng Press Density v_cPt v_cAu 
  398800    394.15607   -1396.4914    4043.9391   -1383.4995    11798.978    20.507817          256            0 
  398900    406.43484   -1396.9203    4088.7448   -1383.5236    -15380.52    20.283086          256            0 
Per MPI rank memory allocation (min/avg/max) = 5.514 | 5.514 | 5.514 Mbytes
Step Temp E_pair Volume TotEng Press Density v_cPt v_cAu 
  398900    406.43484   -1396.9203    4088.7448   -1383.5236    -15380.52    20.283086          256            0 
  399000    397.91567   -1396.7781    4051.1048   -1383.6623    7407.7453    20.471542          256            0 
Per MPI rank memory allocation (min/avg/max) = 5.514 | 5.514 | 5.514 Mbytes
Step Temp E_pair Volume TotEng Press Density v_cPt v_cAu 
  399000    397.91567   -1396.7781    4051.1048   -1383.6623    7407.7453    20.471542          256            0 
  399100    379.86619   -1396.2524    4054.3397   -1383.7315    5769.5326    20.455208          256            0 
Per MPI rank memory allocation (min/avg/max) = 5.514 | 5.514 | 5.514 Mbytes
Step Temp E_pair Volume TotEng Press Density v_cPt v_cAu 
  399100    379.86619   -1396.2524    4054.3397   -1383.7315    5769.5326    20.455208          256            0 
  399200     374.4469   -1396.0463    4084.4057   -1383.7041   -11961.335    20.304634          256            0 
Per MPI rank memory allocation (min/avg/max) = 5.514 | 5.514 | 5.514 Mbytes
Step Temp E_pair Volume TotEng Press Density v_cPt v_cAu 
  399200     374.4469   -1396.0463    4084.4057   -1383.7041   -11961.335    20.304634          256            0 
  399300    411.21007   -1397.3173    4044.4278   -1383.7633    9909.2881    20.505339          256            0 
Per MPI rank memory allocation (min/avg/max) = 5.514 | 5.514 | 5.514 Mbytes
Step Temp E_pair Volume TotEng Press Density v_cPt v_cAu 
  399300    411.21007   -1397.3173    4044.4278   -1383.7633    9909.2881    20.505339          256            0 
  399400    391.71631    -1396.785    4065.6992   -1383.8735   -1981.9546    20.398057          256            0 
Per MPI rank memory allocation (min/avg/max) = 5.514 | 5.514 | 5.514 Mbytes
Step Temp E_pair Volume TotEng Press Density v_cPt v_cAu 
  399400    391.71631    -1396.785    4065.6992   -1383.8735   -1981.9546    20.398057          256            0 
  399500    398.83254   -1397.0194     4076.467   -1383.8733   -8583.2056    20.344176          256            0 
Per MPI rank memory allocation (min/avg/max) = 5.514 | 5.514 | 5.514 Mbytes
Step Temp E_pair Volume TotEng Press Density v_cPt v_cAu 
  399500    398.83254   -1397.0194     4076.467   -1383.8733   -8583.2056    20.344176          256            0 
  399600    371.49842   -1396.1153    4041.1784   -1383.8702    13447.348    20.521826          256            0 
Per MPI rank memory allocation (min/avg/max) = 5.514 | 5.514 | 5.514 Mbytes
Step Temp E_pair Volume TotEng Press Density v_cPt v_cAu 
  399600    371.49842   -1396.1153    4041.1784   -1383.8702    13447.348    20.521826          256            0 
  399700    382.52713   -1396.5555    4075.4021   -1383.9469   -6798.9953    20.349492          256            0 
Per MPI rank memory allocation (min/avg/max) = 5.514 | 5.514 | 5.514 Mbytes
Step Temp E_pair Volume TotEng Press Density v_cPt v_cAu 
  399700    382.52713   -1396.5555    4075.4021   -1383.9469   -6798.9953    20.349492          256            0 
  399800    400.79446   -1397.2259    4065.9891   -1384.0152   -2651.6781    20.396602          256            0 
Per MPI rank memory allocation (min/avg/max) = 5.514 | 5.514 | 5.514 Mbytes
Step Temp E_pair Volume TotEng Press Density v_cPt v_cAu 
  399800    400.79446   -1397.2259    4065.9891   -1384.0152   -2651.6781    20.396602          256            0 
  399900    396.23796   -1397.0439    4044.9242   -1383.9834    9456.8287    20.502822          256            0 
Per MPI rank memory allocation (min/avg/max) = 5.514 | 5.514 | 5.514 Mbytes
Step Temp E_pair Volume TotEng Press Density v_cPt v_cAu 
  399900    396.23796   -1397.0439    4044.9242   -1383.9834    9456.8287    20.502822          256            0 
  400000    390.68073   -1396.8825    4079.9122   -1384.0051   -10682.126    20.326996          256            0 
Per MPI rank memory allocation (min/avg/max) = 5.514 | 5.514 | 5.514 Mbytes
Step Temp E_pair Volume TotEng Press Density v_cPt v_cAu 
  400000    390.68073   -1396.8825    4079.9122   -1384.0051   -10682.126    20.326996          256            0 
  400100    376.97736   -1396.4996     4056.139   -1384.0739     3469.432    20.446134          256            0 
Per MPI rank memory allocation (min/avg/max) = 5.514 | 5.514 | 5.514 Mbytes
Step Temp E_pair Volume TotEng Press Density v_cPt v_cAu 
  400100    376.97736   -1396.4996     4056.139