LAMMPS (22 Aug 2018)
Running on 2 partitions of processors
Step W0 W1
1  1 0.000 0.000 0.000 0.000 0.000  334.000000 178.000000 = 512  |  0.500 0.500 | -2322.063 5 
2  1 0.000 0.000 0.000 0.000 0.000  334.000000 178.000000 = 512  |  0.500 0.500 | -2323.276 5 
3  1 0.000 0.000 0.000 0.000 0.000  334.000000 178.000000 = 512  |  0.500 0.500 | -2321.761 5 
4  1 0.000 0.000 0.000 0.000 0.000  334.000000 178.000000 = 512  |  0.500 0.500 | -2321.901 5 
5  1 0.000 0.000 0.000 0.000 0.000  334.000000 178.000000 = 512  |  0.500 0.500 | -2322.310 5 
6  0 0.000 0.000 0.000 0.000 0.000  334.000000 178.000000 = 512  |  0.500 0.500 | -2322.093 5 
7  1 0.000 0.154 0.000 0.000 0.000  334.000000 178.000000 = 512  |  0.500 0.500 | -2321.208 5 
8  1 0.000 0.267 0.000 0.000 0.000  334.000000 178.000000 = 512  |  0.500 0.500 | -2322.369 5 
9  1 0.000 0.353 0.000 0.000 0.000  334.000000 178.000000 = 512  |  0.500 0.500 | -2322.631 5 
10  1 0.000 0.316 0.000 0.000 0.000  334.000000 178.000000 = 512  |  0.500 0.500 | -2321.891 5 
11  1 0.000 0.286 0.000 0.000 0.000  334.000000 178.000000 = 512  |  0.500 0.500 | -2321.437 5 
12  0 0.200 0.286 0.000 0.000 0.000  334.000000 178.000000 = 512  |  0.500 0.500 | -2321.171 5 
13  0 0.143 0.286 0.000 0.000 0.000  334.000000 178.000000 = 512  |  0.500 0.500 | -2322.222 5 
14  1 0.143 0.261 0.000 0.000 0.000  334.000000 178.000000 = 512  |  0.500 0.500 | -2322.061 5 
15  1 0.143 0.320 0.000 0.000 0.000  334.000000 178.000000 = 512  |  0.500 0.500 | -2320.612 5 
16  0 0.222 0.320 0.000 0.000 0.000  334.000000 178.000000 = 512  |  0.500 0.500 | -2321.782 5 
17  1 0.222 0.296 0.000 0.000 0.000  334.000000 178.000000 = 512  |  0.500 0.500 | -2320.614 5 
18  0 0.182 0.296 0.000 0.000 0.000  334.000000 178.000000 = 512  |  0.500 0.500 | -2319.375 5 
19  0 0.231 0.296 0.000 0.000 0.000  334.000000 178.000000 = 512  |  0.500 0.500 | -2321.938 5 
20  0 0.200 0.296 0.000 0.000 0.000  334.000000 178.000000 = 512  |  0.500 0.500 | -2321.214 5 
21  0 0.176 0.296 0.000 0.000 0.000  334.000000 178.000000 = 512  |  0.500 0.500 | -2320.664 5 
22  1 0.176 0.276 0.000 0.000 0.000  334.000000 178.000000 = 512  |  0.500 0.500 | -2318.493 5 
23  1 0.176 0.258 0.000 0.000 0.000  334.000000 178.000000 = 512  |  0.500 0.500 | -2320.355 5 
24  1 0.176 0.303 0.000 0.000 0.000  334.000000 178.000000 = 512  |  0.500 0.500 | -2317.815 5 
25  1 0.176 0.286 0.000 0.000 0.000  334.000000 178.000000 = 512  |  0.500 0.500 | -2319.469 5 
26  1 0.176 0.270 0.000 0.000 0.000  334.000000 178.000000 = 512  |  0.500 0.500 | -2317.974 5 
27  1 0.176 0.256 0.000 0.000 0.000  334.000000 178.000000 = 512  |  0.500 0.500 | -2320.482 5 
28  0 0.211 0.256 0.000 0.000 0.000  334.000000 178.000000 = 512  |  0.500 0.500 | -2318.548 5 
29  0 0.190 0.256 0.000 0.000 0.000  334.000000 178.000000 = 512  |  0.500 0.500 | -2319.091 5 
30  1 0.190 0.244 0.000 0.000 0.000  334.000000 178.000000 = 512  |  0.500 0.500 | -2319.906 5 
31  1 0.190 0.233 0.000 0.000 0.000  334.000000 178.000000 = 512  |  0.500 0.500 | -2320.869 5 
32  1 0.190 0.222 0.000 0.000 0.000  334.000000 178.000000 = 512  |  0.500 0.500 | -2319.616 5 
33  0 0.174 0.222 0.000 0.000 0.000  334.000000 178.000000 = 512  |  0.500 0.500 | -2320.167 5 
34  1 0.174 0.213 0.000 0.000 0.000  334.000000 178.000000 = 512  |  0.500 0.500 | -2318.610 5 
35  1 0.174 0.204 0.000 0.000 0.000  334.000000 178.000000 = 512  |  0.500 0.500 | -2318.535 5 
36  0 0.160 0.204 0.000 0.000 0.000  334.000000 178.000000 = 512  |  0.500 0.500 | -2320.496 5 
37  1 0.160 0.196 0.000 0.000 0.000  334.000000 178.000000 = 512  |  0.500 0.500 | -2319.805 5 
38  0 0.185 0.196 0.000 0.000 0.000  334.000000 178.000000 = 512  |  0.500 0.500 | -2320.625 5 
39  1 0.185 0.189 0.000 0.000 0.000  334.000000 178.000000 = 512  |  0.500 0.500 | -2320.072 5 
40  0 0.172 0.189 0.000 0.000 0.000  334.000000 178.000000 = 512  |  0.500 0.500 | -2322.110 5 
41  0 0.161 0.189 0.000 0.000 0.000  334.000000 178.000000 = 512  |  0.500 0.500 | -2320.529 5 
42  0 0.152 0.189 0.000 0.000 0.000  334.000000 178.000000 = 512  |  0.500 0.500 | -2320.169 5 
43  0 0.143 0.189 0.000 0.000 0.000  334.000000 178.000000 = 512  |  0.500 0.500 | -2322.552 5 
44  0 0.162 0.189 0.000 0.000 0.000  334.000000 178.000000 = 512  |  0.500 0.500 | -2320.668 5 
45  1 0.162 0.182 0.000 0.000 0.000  334.000000 178.000000 = 512  |  0.500 0.500 | -2321.714 5 
46  1 0.162 0.175 0.000 0.000 0.000  334.000000 178.000000 = 512  |  0.500 0.500 | -2320.952 5 
47  0 0.154 0.175 0.000 0.000 0.000  334.000000 178.000000 = 512  |  0.500 0.500 | -2322.049 5 
48  1 0.154 0.169 0.000 0.000 0.000  334.000000 178.000000 = 512  |  0.500 0.500 | -2320.086 5 
49  1 0.154 0.164 0.000 0.000 0.000  334.000000 178.000000 = 512  |  0.500 0.500 | -2323.196 5 
50  1 0.154 0.159 0.000 0.000 0.000  334.000000 178.000000 = 512  |  0.500 0.500 | -2322.105 5 
51  1 0.154 0.185 0.000 0.000 0.000  334.000000 178.000000 = 512  |  0.500 0.500 | -2320.971 5 
52  1 0.154 0.179 0.000 0.000 0.000  334.000000 178.000000 = 512  |  0.500 0.500 | -2322.385 5 
53  1 0.154 0.174 0.000 0.000 0.000  334.000000 178.000000 = 512  |  0.500 0.500 | -2323.152 5 
54  1 0.154 0.169 0.000 0.000 0.000  334.000000 178.000000 = 512  |  0.500 0.500 | -2321.754 5 
55  1 0.154 0.164 0.000 0.000 0.000  334.000000 178.000000 = 512  |  0.500 0.500 | -2323.417 5 
56  1 0.154 0.160 0.000 0.000 0.000  334.000000 178.000000 = 512  |  0.500 0.500 | -2322.512 5 
57  0 0.171 0.160 0.000 0.000 0.000  334.000000 178.000000 = 512  |  0.500 0.500 | -2323.016 5 
58  0 0.163 0.160 0.000 0.000 0.000  334.000000 178.000000 = 512  |  0.500 0.500 | -2322.835 5 
59  1 0.163 0.156 0.000 0.000 0.000  334.000000 178.000000 = 512  |  0.500 0.500 | -2323.683 5 
60  0 0.156 0.156 0.000 0.000 0.000  334.000000 178.000000 = 512  |  0.500 0.500 | -2322.648 5 
61  1 0.156 0.152 0.000 0.000 0.000  334.000000 178.000000 = 512  |  0.500 0.500 | -2323.484 5 
62  1 0.156 0.173 0.000 0.000 0.000  334.000000 178.000000 = 512  |  0.500 0.500 | -2324.049 5 
63  1 0.156 0.169 0.000 0.000 0.000  334.000000 178.000000 = 512  |  0.500 0.500 | -2322.384 5 
64  1 0.156 0.165 0.000 0.000 0.000  334.000000 178.000000 = 512  |  0.500 0.500 | -2324.025 5 
65  0 0.149 0.165 0.000 0.000 0.000  334.000000 178.000000 = 512  |  0.500 0.500 | -2322.238 5 
66  1 0.149 0.161 0.000 0.000 0.000  334.000000 178.000000 = 512  |  0.500 0.500 | -2322.488 5 
67  0 0.163 0.161 0.000 0.000 0.000  334.000000 178.000000 = 512  |  0.500 0.500 | -2325.573 5 
68  1 0.163 0.157 0.000 0.000 0.000  334.000000 178.000000 = 512  |  0.500 0.500 | -2323.589 5 
69  0 0.176 0.157 0.000 0.000 0.000  334.000000 178.000000 = 512  |  0.500 0.500 | -2323.035 5 
70  1 0.176 0.154 0.000 0.000 0.000  334.000000 178.000000 = 512  |  0.500 0.500 | -2324.250 5 
71  1 0.176 0.172 0.000 0.000 0.000  334.000000 178.000000 = 512  |  0.500 0.500 | -2323.650 5 
72  1 0.176 0.168 0.000 0.000 0.000  334.000000 178.000000 = 512  |  0.500 0.500 | -2324.848 5 
73  0 0.189 0.168 0.000 0.000 0.000  334.000000 178.000000 = 512  |  0.500 0.500 | -2323.481 5 
74  1 0.189 0.165 0.000 0.000 0.000  334.000000 178.000000 = 512  |  0.500 0.500 | -2324.334 5 
75  0 0.182 0.165 0.000 0.000 0.000  334.000000 178.000000 = 512  |  0.500 0.500 | -2323.083 5 
76  1 0.182 0.162 0.000 0.000 0.000  334.000000 178.000000 = 512  |  0.500 0.500 | -2325.036 5 
77  0 0.193 0.162 0.000 0.000 0.000  334.000000 178.000000 = 512  |  0.500 0.500 | -2323.856 5 
78  0 0.186 0.162 0.000 0.000 0.000  334.000000 178.000000 = 512  |  0.500 0.500 | -2324.090 5 
79  1 0.186 0.178 0.000 0.000 0.000  334.000000 178.000000 = 512  |  0.500 0.500 | -2323.373 5 
80  1 0.186 0.175 0.000 0.000 0.000  334.000000 178.000000 = 512  |  0.500 0.500 | -2323.499 5 
81  0 0.197 0.175 0.000 0.000 0.000  334.000000 178.000000 = 512  |  0.500 0.500 | -2324.109 5 
82  0 0.190 0.175 0.000 0.000 0.000  334.000000 178.000000 = 512  |  0.500 0.500 | -2323.382 5 
83  1 0.190 0.171 0.000 0.000 0.000  334.000000 178.000000 = 512  |  0.500 0.500 | -2324.634 5 
84  1 0.190 0.187 0.000 0.000 0.000  334.000000 178.000000 = 512  |  0.500 0.500 | -2323.790 5 
85  1 0.190 0.183 0.000 0.000 0.000  334.000000 178.000000 = 512  |  0.500 0.500 | -2324.353 5 
86  1 0.190 0.180 0.000 0.000 0.000  334.000000 178.000000 = 512  |  0.500 0.500 | -2321.769 5 
87  1 0.190 0.177 0.000 0.000 0.000  334.000000 178.000000 = 512  |  0.500 0.500 | -2324.071 5 
88  1 0.190 0.174 0.000 0.000 0.000  334.000000 178.000000 = 512  |  0.500 0.500 | -2322.820 5 
89  0 0.200 0.174 0.000 0.000 0.000  334.000000 178.000000 = 512  |  0.500 0.500 | -2322.832 5 
90  1 0.200 0.171 0.000 0.000 0.000  334.000000 178.000000 = 512  |  0.500 0.500 | -2323.724 5 
91  1 0.200 0.168 0.000 0.000 0.000  334.000000 178.000000 = 512  |  0.500 0.500 | -2324.276 5 
92  1 0.200 0.182 0.000 0.000 0.000  334.000000 178.000000 = 512  |  0.500 0.500 | -2321.883 5 
93  1 0.200 0.195 0.000 0.000 0.000  334.000000 178.000000 = 512  |  0.500 0.500 | -2322.856 5 
94  1 0.200 0.192 0.000 0.000 0.000  334.000000 178.000000 = 512  |  0.500 0.500 | -2322.344 5 
95  0 0.194 0.192 0.000 0.000 0.000  334.000000 178.000000 = 512  |  0.500 0.500 | -2322.983 5 
96  1 0.194 0.189 0.000 0.000 0.000  334.000000 178.000000 = 512  |  0.500 0.500 | -2322.409 5 
97  1 0.194 0.202 0.000 0.000 0.000  334.000000 178.000000 = 512  |  0.500 0.500 | -2322.007 5 
98  1 0.194 0.198 0.000 0.000 0.000  334.000000 178.000000 = 512  |  0.500 0.500 | -2321.896 5 
99  1 0.194 0.195 0.000 0.000 0.000  334.000000 178.000000 = 512  |  0.500 0.500 | -2321.409 5 
100  1 0.194 0.207 0.000 0.000 0.000  334.000000 178.000000 = 512  |  0.500 0.500 | -2321.885 5 
101  1 0.194 0.204 0.000 0.000 0.000  334.000000 178.000000 = 512  |  0.500 0.500 | -2323.302 5 
102  1 0.194 0.201 0.000 0.000 0.000  334.000000 178.000000 = 512  |  0.500 0.500 | -2322.942 5 
103  1 0.194 0.199 0.000 0.000 0.000  334.000000 178.000000 = 512  |  0.500 0.500 | -2322.066 5 
104  1 0.194 0.196 0.000 0.000 0.000  334.000000 178.000000 = 512  |  0.500 0.500 | -2322.207 5 
105  0 0.188 0.196 0.000 0.000 0.000  334.000000 178.000000 = 512  |  0.500 0.500 | -2323.100 5 
106  1 0.188 0.193 0.000 0.000 0.000  334.000000 178.000000 = 512  |  0.500 0.500 | -2321.497 5 
107  0 0.183 0.193 0.000 0.000 0.000  334.000000 178.000000 = 512  |  0.500 0.500 | -2323.646 5 
108  1 0.183 0.190 0.000 0.000 0.000  334.000000 178.000000 = 512  |  0.500 0.500 | -2322.481 5 
109  1 0.183 0.188 0.000 0.000 0.000  334.000000 178.000000 = 512  |  0.500 0.500 | -2321.767 5 
110  1 0.183 0.185 0.000 0.000 0.000  334.000000 178.000000 = 512  |  0.500 0.500 | -2324.029 5 
111  0 0.178 0.185 0.000 0.000 0.000  334.000000 178.000000 = 512  |  0.500 0.500 | -2323.733 5 
112  1 0.178 0.196 0.000 0.000 0.000  334.000000 178.000000 = 512  |  0.500 0.500 | -2322.795 5 
113  0 0.173 0.196 0.000 0.000 0.000  334.000000 178.000000 = 512  |  0.500 0.500 | -2323.939 5 
114  0 0.169 0.196 0.000 0.000 0.000  334.000000 178.000000 = 512  |  0.500 0.500 | -2324.610 5 
115  0 0.165 0.196 0.000 0.000 0.000  334.000000 178.000000 = 512  |  0.500 0.500 | -2323.472 5 
116  0 0.160 0.196 0.000 0.000 0.000  334.000000 178.000000 = 512  |  0.500 0.500 | -2326.156 5 
117  0 0.157 0.196 0.000 0.000 0.000  334.000000 178.000000 = 512  |  0.500 0.500 | -2324.481 5 
118  0 0.165 0.196 0.000 0.000 0.000  334.000000 178.000000 = 512  |  0.500 0.500 | -2324.278 5 
119  0 0.161 0.196 0.000 0.000 0.000  334.000000 178.000000 = 512  |  0.500 0.500 | -2324.725 5 
120  1 0.161 0.206 0.000 0.000 0.000  334.000000 178.000000 = 512  |  0.500 0.500 | -2325.209 5 
121  1 0.161 0.204 0.000 0.000 0.000  334.000000 178.000000 = 512  |  0.500 0.500 | -2324.636 5 
122  1 0.161 0.201 0.000 0.000 0.000  334.000000 178.000000 = 512  |  0.500 0.500 | -2324.008 5 
123  1 0.161 0.199 0.000 0.000 0.000  334.000000 178.000000 = 512  |  0.500 0.500 | -2326.699 5 
124  1 0.161 0.196 0.000 0.000 0.000  334.000000 178.000000 = 512  |  0.500 0.500 | -2324.691 5 
125  0 0.157 0.196 0.000 0.000 0.000  334.000000 178.000000 = 512  |  0.500 0.500 | -2324.258 5 
126  0 0.165 0.196 0.000 0.000 0.000  334.000000 178.000000 = 512  |  0.500 0.500 | -2325.665 5 
127  0 0.172 0.196 0.000 0.000 0.000  334.000000 178.000000 = 512  |  0.500 0.500 | -2325.060 5 
128  0 0.179 0.196 0.000 0.000 0.000  334.000000 178.000000 = 512  |  0.500 0.500 | -2325.462 5 
129  1 0.179 0.206 0.000 0.000 0.000  334.000000 178.000000 = 512  |  0.500 0.500 | -2325.118 5 
130  1 0.179 0.204 0.000 0.000 0.000  334.000000 178.000000 = 512  |  0.500 0.500 | -2325.743 5 
131  1 0.179 0.213 0.000 0.000 0.000  334.000000 178.000000 = 512  |  0.500 0.500 | -2325.547 5 
132  1 0.179 0.211 0.000 0.000 0.000  334.000000 178.000000 = 512  |  0.500 0.500 | -2325.057 5 
133  1 0.179 0.208 0.000 0.000 0.000  334.000000 178.000000 = 512  |  0.500 0.500 | -2325.283 5 
134  1 0.179 0.206 0.000 0.000 0.000  334.000000 178.000000 = 512  |  0.500 0.500 | -2324.949 5 
135  1 0.179 0.203 0.000 0.000 0.000  334.000000 178.000000 = 512  |  0.500 0.500 | -2325.685 5 
136  0 0.175 0.203 0.000 0.000 0.000  334.000000 178.000000 = 512  |  0.500 0.500 | -2325.656 5 
137  0 0.182 0.203 0.000 0.000 0.000  334.000000 178.000000 = 512  |  0.500 0.500 | -2324.409 5 
138  0 0.188 0.203 0.000 0.000 0.000  334.000000 178.000000 = 512  |  0.500 0.500 | -2325.813 5 
139  1 0.188 0.201 0.000 0.000 0.000  334.000000 178.000000 = 512  |  0.500 0.500 | -2325.933 5 
140  1 0.188 0.199 0.000 0.000 0.000  334.000000 178.000000 = 512  |  0.500 0.500 | -2324.526 5 
141  0 0.184 0.199 0.000 0.000 0.000  334.000000 178.000000 = 512  |  0.500 0.500 | -2325.102 5 
142  1 0.184 0.197 0.000 0.000 0.000  334.000000 178.000000 = 512  |  0.500 0.500 | -2326.306 5 
143  0 0.181 0.197 0.000 0.000 0.000  334.000000 178.000000 = 512  |  0.500 0.500 | -2325.668 5 
144  1 0.181 0.195 0.000 0.000 0.000  334.000000 178.000000 = 512  |  0.500 0.500 | -2324.935 5 
145  1 0.181 0.193 0.000 0.000 0.000  334.000000 178.000000 = 512  |  0.500 0.500 | -2326.037 5 
146  1 0.181 0.190 0.000 0.000 0.000  334.000000 178.000000 = 512  |  0.500 0.500 | -2324.399 5 
147  0 0.187 0.190 0.000 0.000 0.000  334.000000 178.000000 = 512  |  0.500 0.500 | -2325.151 5 
148  1 0.187 0.188 0.000 0.000 0.000  334.000000 178.000000 = 512  |  0.500 0.500 | -2325.727 5 
149  0 0.183 0.188 0.000 0.000 0.000  334.000000 178.000000 = 512  |  0.500 0.500 | -2324.845 5 
150  1 0.183 0.187 0.000 0.000 0.000  334.000000 178.000000 = 512  |  0.500 0.500 | -2324.857 5 
151  0 0.180 0.187 0.000 0.000 0.000  334.000000 178.000000 = 512  |  0.500 0.500 | -2324.983 5 
152  1 0.180 0.185 0.000 0.000 0.000  334.000000 178.000000 = 512  |  0.500 0.500 | -2324.977 5 
153  1 0.180 0.183 0.000 0.000 0.000  334.000000 178.000000 = 512  |  0.500 0.500 | -2325.342 5 
154  1 0.180 0.181 0.000 0.000 0.000  334.000000 178.000000 = 512  |  0.500 0.500 | -2325.093 5 
155  1 0.180 0.179 0.000 0.000 0.000  334.000000 178.000000 = 512  |  0.500 0.500 | -2324.140 5 
156  1 0.180 0.177 0.000 0.000 0.000  334.000000 178.000000 = 512  |  0.500 0.500 | -2324.383 5 
157  1 0.180 0.176 0.000 0.000 0.000  334.000000 178.000000 = 512  |  0.500 0.500 | -2325.208 5 
158  1 0.180 0.174 0.000 0.000 0.000  334.000000 178.000000 = 512  |  0.500 0.500 | -2324.640 5 
159  1 0.180 0.172 0.000 0.000 0.000  334.000000 178.000000 = 512  |  0.500 0.500 | -2324.556 5 
160  0 0.177 0.172 0.000 0.000 0.000  334.000000 178.000000 = 512  |  0.500 0.500 | -2325.236 5 
161  0 0.183 0.172 0.000 0.000 0.000  334.000000 178.000000 = 512  |  0.500 0.500 | -2324.029 5 
162  1 0.183 0.180 0.000 0.000 0.000  334.000000 178.000000 = 512  |  0.500 0.500 | -2323.982 5 
163  1 0.183 0.178 0.000 0.000 0.000  334.000000 178.000000 = 512  |  0.500 0.500 | -2324.887 5 
164  1 0.183 0.177 0.000 0.000 0.000  334.000000 178.000000 = 512  |  0.500 0.500 | -2324.513 5 
165  0 0.179 0.177 0.000 0.000 0.000  334.000000 178.000000 = 512  |  0.500 0.500 | -2324.081 5 
166  0 0.176 0.177 0.000 0.000 0.000  334.000000 178.000000 = 512  |  0.500 0.500 | -2324.845 5 
167  1 0.176 0.175 0.000 0.000 0.000  334.000000 178.000000 = 512  |  0.500 0.500 | -2323.760 5 
168  1 0.176 0.174 0.000 0.000 0.000  334.000000 178.000000 = 512  |  0.500 0.500 | -2324.276 5 
169  1 0.176 0.172 0.000 0.000 0.000  334.000000 178.000000 = 512  |  0.500 0.500 | -2325.350 5 
170  1 0.176 0.170 0.000 0.000 0.000  334.000000 178.000000 = 512  |  0.500 0.500 | -2325.037 5 
171  0 0.174 0.170 0.000 0.000 0.000  334.000000 178.000000 = 512  |  0.500 0.500 | -2324.528 5 
172  1 0.174 0.169 0.000 0.000 0.000  334.000000 178.000000 = 512  |  0.500 0.500 | -2324.808 5 
173  1 0.174 0.167 0.000 0.000 0.000  334.000000 178.000000 = 512  |  0.500 0.500 | -2325.048 5 
174  1 0.174 0.166 0.000 0.000 0.000  334.000000 178.000000 = 512  |  0.500 0.500 | -2325.158 5 
175  1 0.174 0.165 0.000 0.000 0.000  334.000000 178.000000 = 512  |  0.500 0.500 | -2324.267 5 
176  0 0.171 0.165 0.000 0.000 0.000  334.000000 178.000000 = 512  |  0.500 0.500 | -2325.169 5 
177  0 0.168 0.165 0.000 0.000 0.000  334.000000 178.000000 = 512  |  0.500 0.500 | -2324.731 5 
178  1 0.168 0.163 0.000 0.000 0.000  334.000000 178.000000 = 512  |  0.500 0.500 | -2325.407 5 
179  1 0.168 0.162 0.000 0.000 0.000  334.000000 178.000000 = 512  |  0.500 0.500 | -2325.305 5 
180  0 0.165 0.162 0.000 0.000 0.000  334.000000 178.000000 = 512  |  0.500 0.500 | -2325.185 5 
181  0 0.163 0.162 0.000 0.000 0.000  334.000000 178.000000 = 512  |  0.500 0.500 | -2325.855 5 
182  1 0.163 0.160 0.000 0.000 0.000  334.000000 178.000000 = 512  |  0.500 0.500 | -2325.775 5 
183  1 0.163 0.159 0.000 0.000 0.000  334.000000 178.000000 = 512  |  0.500 0.500 | -2325.976 5 
184  1 0.163 0.158 0.000 0.000 0.000  334.000000 178.000000 = 512  |  0.500 0.500 | -2325.183 5 
185  1 0.163 0.156 0.000 0.000 0.000  334.000000 178.000000 = 512  |  0.500 0.500 | -2326.032 5 
186  0 0.160 0.156 0.000 0.000 0.000  334.000000 178.000000 = 512  |  0.500 0.500 | -2324.987 5 
187  1 0.160 0.155 0.000 0.000 0.000  334.000000 178.000000 = 512  |  0.500 0.500 | -2327.317 5 
188  1 0.160 0.154 0.000 0.000 0.000  334.000000 178.000000 = 512  |  0.500 0.500 | -2325.277 5 
189  1 0.160 0.153 0.000 0.000 0.000  334.000000 178.000000 = 512  |  0.500 0.500 | -2326.119 5 
190  1 0.160 0.151 0.000 0.000 0.000  334.000000 178.000000 = 512  |  0.500 0.500 | -2326.076 5 
191  1 0.160 0.150 0.000 0.000 0.000  334.000000 178.000000 = 512  |  0.500 0.500 | -2327.447 5 
192  0 0.158 0.150 0.000 0.000 0.000  334.000000 178.000000 = 512  |  0.500 0.500 | -2326.588 5 
193  1 0.158 0.149 0.000 0.000 0.000  334.000000 178.000000 = 512  |  0.500 0.500 | -2326.584 5 
194  0 0.156 0.149 0.000 0.000 0.000  334.000000 178.000000 = 512  |  0.500 0.500 | -2326.506 5 
195  1 0.156 0.148 0.000 0.000 0.000  334.000000 178.000000 = 512  |  0.500 0.500 | -2326.388 5 
196  1 0.156 0.147 0.000 0.000 0.000  334.000000 178.000000 = 512  |  0.500 0.500 | -2326.822 5 
197  1 0.156 0.146 0.000 0.000 0.000  334.000000 178.000000 = 512  |  0.500 0.500 | -2326.475 5 
198  1 0.156 0.144 0.000 0.000 0.000  334.000000 178.000000 = 512  |  0.500 0.500 | -2326.507 5 
199  0 0.153 0.144 0.000 0.000 0.000  334.000000 178.000000 = 512  |  0.500 0.500 | -2326.235 5 
200  1 0.153 0.151 0.000 0.000 0.000  334.000000 178.000000 = 512  |  0.500 0.500 | -2326.628 5 
201  0 0.151 0.151 0.000 0.000 0.000  334.000000 178.000000 = 512  |  0.500 0.500 | -2325.755 5 
202  0 0.149 0.151 0.000 0.000 0.000  334.000000 178.000000 = 512  |  0.500 0.500 | -2327.481 5 
203  1 0.149 0.157 0.000 0.000 0.000  334.000000 178.000000 = 512  |  0.500 0.500 | -2325.544 5 
204  1 0.149 0.156 0.000 0.000 0.000  334.000000 178.000000 = 512  |  0.500 0.500 | -2326.524 5 
205  0 0.147 0.156 0.000 0.000 0.000  334.000000 178.000000 = 512  |  0.500 0.500 | -2327.001 5 
206  1 0.147 0.155 0.000 0.000 0.000  334.000000 178.000000 = 512  |  0.500 0.500 | -2325.494 5 
207  0 0.145 0.155 0.000 0.000 0.000  334.000000 178.000000 = 512  |  0.500 0.500 | -2326.225 5 
208  1 0.145 0.154 0.000 0.000 0.000  334.000000 178.000000 = 512  |  0.500 0.500 | -2327.089 5 
209  1 0.145 0.153 0.000 0.000 0.000  334.000000 178.000000 = 512  |  0.500 0.500 | -2324.913 5 
210  0 0.143 0.153 0.000 0.000 0.000  334.000000 178.000000 = 512  |  0.500 0.500 | -2325.476 5 
211  0 0.141 0.153 0.000 0.000 0.000  334.000000 178.000000 = 512  |  0.500 0.500 | -2326.024 5 
212  1 0.141 0.152 0.000 0.000 0.000  334.000000 178.000000 = 512  |  0.500 0.500 | -2325.874 5 
213  1 0.141 0.151 0.000 0.000 0.000  334.000000 178.000000 = 512  |  0.500 0.500 | -2325.779 5 
214  1 0.141 0.149 0.000 0.000 0.000  334.000000 178.000000 = 512  |  0.500 0.500 | -2325.714 5 
215  1 0.141 0.148 0.000 0.000 0.000  334.000000 178.000000 = 512  |  0.500 0.500 | -2325.011 5 
216  0 0.139 0.148 0.000 0.000 0.000  334.000000 178.000000 = 512  |  0.500 0.500 | -2324.356 5 
217  1 0.139 0.147 0.000 0.000 0.000  334.000000 178.000000 = 512  |  0.500 0.500 | -2325.449 5 
218  1 0.139 0.146 0.000 0.000 0.000  334.000000 178.000000 = 512  |  0.500 0.500 | -2325.240 5 
219  1 0.139 0.145 0.000 0.000 0.000  334.000000 178.000000 = 512  |  0.500 0.500 | -2326.418 5 
220  1 0.139 0.144 0.000 0.000 0.000  334.000000 178.000000 = 512  |  0.500 0.500 | -2324.968 5 
221  0 0.137 0.144 0.000 0.000 0.000  334.000000 178.000000 = 512  |  0.500 0.500 | -2323.712 5 
222  1 0.137 0.143 0.000 0.000 0.000  334.000000 178.000000 = 512  |  0.500 0.500 | -2326.068 5 
223  1 0.137 0.142 0.000 0.000 0.000  334.000000 178.000000 = 512  |  0.500 0.500 | -2325.079 5 
224  1 0.137 0.148 0.000 0.000 0.000  334.000000 178.000000 = 512  |  0.500 0.500 | -2325.871 5 
225  0 0.142 0.148 0.000 0.000 0.000  334.000000 178.000000 = 512  |  0.500 0.500 | -2324.407 5 
226  1 0.142 0.147 0.000 0.000 0.000  334.000000 178.000000 = 512  |  0.500 0.500 | -2326.186 5 
227  0 0.140 0.147 0.000 0.000 0.000  334.000000 178.000000 = 512  |  0.500 0.500 | -2323.856 5 
228  0 0.138 0.147 0.000 0.000 0.000  334.000000 178.000000 = 512  |  0.500 0.500 | -2325.044 5 
229  1 0.138 0.146 0.000 0.000 0.000  334.000000 178.000000 = 512  |  0.500 0.500 | -2326.567 5 
230  1 0.138 0.145 0.000 0.000 0.000  334.000000 178.000000 = 512  |  0.500 0.500 | -2324.334 5 
231  0 0.137 0.145 0.000 0.000 0.000  334.000000 178.000000 = 512  |  0.500 0.500 | -2324.909 5 
232  1 0.137 0.144 0.000 0.000 0.000  334.000000 178.000000 = 512  |  0.500 0.500 | -2326.469 5 
233  0 0.135 0.144 0.000 0.000 0.000  334.000000 178.000000 = 512  |  0.500 0.500 | -2324.778 5 
234  1 0.135 0.150 0.000 0.000 0.000  334.000000 178.000000 = 512  |  0.500 0.500 | -2325.428 5 
235  1 0.135 0.149 0.000 0.000 0.000  334.000000 178.000000 = 512  |  0.500 0.500 | -2326.201 5 
236  1 0.135 0.148 0.000 0.000 0.000  334.000000 178.000000 = 512  |  0.500 0.500 | -2324.969 5 
237  1 0.135 0.147 0.000 0.000 0.000  334.000000 178.000000 = 512  |  0.500 0.500 | -2325.442 5 
238  1 0.135 0.146 0.000 0.000 0.000  334.000000 178.000000 = 512  |  0.500 0.500 | -2326.752 5 
239  1 0.135 0.145 0.000 0.000 0.000  334.000000 178.000000 = 512  |  0.500 0.500 | -2326.051 5 
240  1 0.135 0.144 0.000 0.000 0.000  334.000000 178.000000 = 512  |  0.500 0.500 | -2326.530 5 
241  1 0.135 0.143 0.000 0.000 0.000  334.000000 178.000000 = 512  |  0.500 0.500 | -2326.019 5 
242  1 0.135 0.149 0.000 0.000 0.000  334.000000 178.000000 = 512  |  0.500 0.500 | -2326.140 5 
243  0 0.139 0.149 0.000 0.000 0.000  334.000000 178.000000 = 512  |  0.500 0.500 | -2327.577 5 
244  1 0.139 0.148 0.000 0.000 0.000  334.000000 178.000000 = 512  |  0.500 0.500 | -2326.843 5 
245  1 0.139 0.147 0.000 0.000 0.000  334.000000 178.000000 = 512  |  0.500 0.500 | -2326.939 5 
246  1 0.139 0.146 0.000 0.000 0.000  334.000000 178.000000 = 512  |  0.500 0.500 | -2327.507 5 
247  0 0.138 0.146 0.000 0.000 0.000  334.000000 178.000000 = 512  |  0.500 0.500 | -2326.553 5 
248  0 0.142 0.146 0.000 0.000 0.000  334.000000 178.000000 = 512  |  0.500 0.500 | -2327.407 5 
249  1 0.142 0.145 0.000 0.000 0.000  334.000000 178.000000 = 512  |  0.500 0.500 | -2327.837 5 
250  1 0.142 0.150 0.000 0.000 0.000  334.000000 178.000000 = 512  |  0.500 0.500 | -2326.345 5 
251  1 0.142 0.149 0.000 0.000 0.000  334.000000 178.000000 = 512  |  0.500 0.500 | -2327.393 5 
252  1 0.142 0.148 0.000 0.000 0.000  334.000000 178.000000 = 512  |  0.500 0.500 | -2327.708 5 
253  1 0.142 0.147 0.000 0.000 0.000  334.000000 178.000000 = 512  |  0.500 0.500 | -2328.082 5 
254  0 0.140 0.147 0.000 0.000 0.000  334.000000 178.000000 = 512  |  0.500 0.500 | -2327.349 5 
255  1 0.140 0.147 0.000 0.000 0.000  334.000000 178.000000 = 512  |  0.500 0.500 | -2327.651 5 
256  1 0.140 0.152 0.000 0.000 0.000  334.000000 178.000000 = 512  |  0.500 0.500 | -2328.559 5 
257  0 0.139 0.152 0.000 0.000 0.000  334.000000 178.000000 = 512  |  0.500 0.500 | -2326.821 5 
258  1 0.139 0.151 0.000 0.000 0.000  334.000000 178.000000 = 512  |  0.500 0.500 | -2327.156 5 
259  0 0.137 0.151 0.000 0.000 0.000  334.000000 178.000000 = 512  |  0.500 0.500 | -2327.015 5 
260  1 0.137 0.150 0.000 0.000 0.000  334.000000 178.000000 = 512  |  0.500 0.500 | -2326.772 5 
261  0 0.136 0.150 0.000 0.000 0.000  334.000000 178.000000 = 512  |  0.500 0.500 | -2328.287 5 
262  1 0.136 0.149 0.000 0.000 0.000  334.000000 178.000000 = 512  |  0.500 0.500 | -2327.613 5 
263  1 0.136 0.148 0.000 0.000 0.000  334.000000 178.000000 = 512  |  0.500 0.500 | -2326.722 5 
264  1 0.136 0.147 0.000 0.000 0.000  334.000000 178.000000 = 512  |  0.500 0.500 | -2327.580 5 
265  0 0.134 0.147 0.000 0.000 0.000  334.000000 178.000000 = 512  |  0.500 0.500 | -2326.799 5 
266  0 0.133 0.147 0.000 0.000 0.000  334.000000 178.000000 = 512  |  0.500 0.500 | -2326.137 5 
267  1 0.133 0.146 0.000 0.000 0.000  334.000000 178.000000 = 512  |  0.500 0.500 | -2328.017 5 
268  0 0.137 0.146 0.000 0.000 0.000  334.000000 178.000000 = 512  |  0.500 0.500 | -2326.334 5 
269  1 0.137 0.146 0.000 0.000 0.000  334.000000 178.000000 = 512  |  0.500 0.500 | -2327.211 5 
270  1 0.137 0.145 0.000 0.000 0.000  334.000000 178.000000 = 512  |  0.500 0.500 | -2326.761 5 
271  1 0.137 0.144 0.000 0.000 0.000  334.000000 178.000000 = 512  |  0.500 0.500 | -2327.031 5 
272  1 0.137 0.149 0.000 0.000 0.000  334.000000 178.000000 = 512  |  0.500 0.500 | -2327.776 5 
273  1 0.137 0.148 0.000 0.000 0.000  334.000000 178.000000 = 512  |  0.500 0.500 | -2327.038 5 
274  0 0.141 0.148 0.000 0.000 0.000  334.000000 178.000000 = 512  |  0.500 0.500 | -2327.610 5 
275  1 0.141 0.147 0.000 0.000 0.000  334.000000 178.000000 = 512  |  0.500 0.500 | -2327.522 5 
276  0 0.139 0.147 0.000 0.000 0.000  334.000000 178.000000 = 512  |  0.500 0.500 | -2327.361 5 
277  1 0.139 0.146 0.000 0.000 0.000  334.000000 178.000000 = 512  |  0.500 0.500 | -2327.001 5 
278  0 0.138 0.146 0.000 0.000 0.000  334.000000 178.000000 = 512  |  0.500 0.500 | -2328.472 5 
279  1 0.138 0.146 0.000 0.000 0.000  334.000000 178.000000 = 512  |  0.500 0.500 | -2328.362 5 
280  1 0.138 0.145 0.000 0.000 0.000  334.000000 178.000000 = 512  |  0.500 0.500 | -2327.974 5 
281  1 0.138 0.144 0.000 0.000 0.000  334.000000 178.000000 = 512  |  0.500 0.500 | -2327.953 5 
282  1 0.138 0.143 0.000 0.000 0.000  334.000000 178.000000 = 512  |  0.500 0.500 | -2327.412 5 
283  0 0.141 0.143 0.000 0.000 0.000  334.000000 178.000000 = 512  |  0.500 0.500 | -2328.172 5 
284  0 0.140 0.143 0.000 0.000 0.000  334.000000 178.000000 = 512  |  0.500 0.500 | -2328.608 5 
285  0 0.144 0.143 0.000 0.000 0.000  334.000000 178.000000 = 512  |  0.500 0.500 | -2327.161 5 
286  1 0.144 0.142 0.000 0.000 0.000  334.000000 178.000000 = 512  |  0.500 0.500 | -2328.816 5 
287  1 0.144 0.142 0.000 0.000 0.000  334.000000 178.000000 = 512  |  0.500 0.500 | -2327.571 5 
288  0 0.142 0.142 0.000 0.000 0.000  334.000000 178.000000 = 512  |  0.500 0.500 | -2329.081 5 
289  1 0.142 0.141 0.000 0.000 0.000  334.000000 178.000000 = 512  |  0.500 0.500 | -2328.450 5 
290  1 0.142 0.140 0.000 0.000 0.000  334.000000 178.000000 = 512  |  0.500 0.500 | -2327.517 5 
291  1 0.142 0.140 0.000 0.000 0.000  334.000000 178.000000 = 512  |  0.500 0.500 | -2328.416 5 
292  0 0.141 0.140 0.000 0.000 0.000  334.000000 178.000000 = 512  |  0.500 0.500 | -2328.450 5 
293  1 0.141 0.144 0.000 0.000 0.000  334.000000 178.000000 = 512  |  0.500 0.500 | -2328.088 5 
294  0 0.139 0.144 0.000 0.000 0.000  334.000000 178.000000 = 512  |  0.500 0.500 | -2329.254 5 
295  0 0.138 0.144 0.000 0.000 0.000  334.000000 178.000000 = 512  |  0.500 0.500 | -2328.193 5 
296  0 0.137 0.144 0.000 0.000 0.000  334.000000 178.000000 = 512  |  0.500 0.500 | -2327.924 5 
297  1 0.137 0.143 0.000 0.000 0.000  334.000000 178.000000 = 512  |  0.500 0.500 | -2329.246 5 
298  1 0.137 0.142 0.000 0.000 0.000  334.000000 178.000000 = 512  |  0.500 0.500 | -2326.869 5 
299  1 0.137 0.142 0.000 0.000 0.000  334.000000 178.000000 = 512  |  0.500 0.500 | -2328.321 5 
300  1 0.137 0.141 0.000 0.000 0.000  334.000000 178.000000 = 512  |  0.500 0.500 | -2327.210 5 
301  1 0.137 0.140 0.000 0.000 0.000  334.000000 178.000000 = 512  |  0.500 0.500 | -2329.123 5 
302  0 0.135 0.140 0.000 0.000 0.000  334.000000 178.000000 = 512  |  0.500 0.500 | -2328.226 5 
303  1 0.135 0.140 0.000 0.000 0.000  334.000000 178.000000 = 512  |  0.500 0.500 | -2327.815 5 
304  1 0.135 0.139 0.000 0.000 0.000  334.000000 178.000000 = 512  |  0.500 0.500 | -2329.338 5 
305  1 0.135 0.138 0.000 0.000 0.000  334.000000 178.000000 = 512  |  0.500 0.500 | -2328.563 5 
306  0 0.139 0.138 0.000 0.000 0.000  334.000000 178.000000 = 512  |  0.500 0.500 | -2327.882 5 
307  0 0.137 0.138 0.000 0.000 0.000  334.000000 178.000000 = 512  |  0.500 0.500 | -2328.858 5 
308  1 0.137 0.138 0.000 0.000 0.000  334.000000 178.000000 = 512  |  0.500 0.500 | -2327.788 5 
309  0 0.136 0.138 0.000 0.000 0.000  334.000000 178.000000 = 512  |  0.500 0.500 | -2328.355 5 
310  1 0.136 0.137 0.000 0.000 0.000  334.000000 178.000000 = 512  |  0.500 0.500 | -2329.133 5 
311  0 0.135 0.137 0.000 0.000 0.000  334.000000 178.000000 = 512  |  0.500 0.500 | -2327.524 5 
312  1 0.135 0.136 0.000 0.000 0.000  334.000000 178.000000 = 512  |  0.500 0.500 | -2328.889 5 
313  0 0.134 0.136 0.000 0.000 0.000  334.000000 178.000000 = 512  |  0.500 0.500 | -2327.578 5 
314  1 0.134 0.136 0.000 0.000 0.000  334.000000 178.000000 = 512  |  0.500 0.500 | -2327.610 5 
315  1 0.134 0.135 0.000 0.000 0.000  334.000000 178.000000 = 512  |  0.500 0.500 | -2327.937 5 
316  1 0.134 0.139 0.000 0.000 0.000  334.000000 178.000000 = 512  |  0.500 0.500 | -2328.708 5 
317  1 0.134 0.138 0.000 0.000 0.000  334.000000 178.000000 = 512  |  0.500 0.500 | -2329.125 5 
318  1 0.134 0.138 0.000 0.000 0.000  334.000000 178.000000 = 512  |  0.500 0.500 | -2327.641 5 
319  0 0.132 0.138 0.000 0.000 0.000  334.000000 178.000000 = 512  |  0.500 0.500 | -2326.562 5 
320  1 0.132 0.137 0.000 0.000 0.000  334.000000 178.000000 = 512  |  0.500 0.500 | -2328.419 5 
321  1 0.132 0.136 0.000 0.000 0.000  334.000000 178.000000 = 512  |  0.500 0.500 | -2328.706 5 
322  1 0.132 0.136 0.000 0.000 0.000  334.000000 178.000000 = 512  |  0.500 0.500 | -2326.781 5 
323  1 0.132 0.135 0.000 0.000 0.000  334.000000 178.000000 = 512  |  0.500 0.500 | -2328.774 5 
324  1 0.132 0.135 0.000 0.000 0.000  334.000000 178.000000 = 512  |  0.500 0.500 | -2328.707 5 
325  0 0.131 0.135 0.000 0.000 0.000  334.000000 178.000000 = 512  |  0.500 0.500 | -2326.043 5 
326  1 0.131 0.134 0.000 0.000 0.000  334.000000 178.000000 = 512  |  0.500 0.500 | -2328.324 5 
327  0 0.130 0.134 0.000 0.000 0.000  334.000000 178.000000 = 512  |  0.500 0.500 | -2328.876 5 
328  1 0.130 0.133 0.000 0.000 0.000  334.000000 178.000000 = 512  |  0.500 0.500 | -2326.876 5 
329  1 0.130 0.133 0.000 0.000 0.000  334.000000 178.000000 = 512  |  0.500 0.500 | -2328.227 5 
330  1 0.130 0.132 0.000 0.000 0.000  334.000000 178.000000 = 512  |  0.500 0.500 | -2327.892 5 
331  1 0.130 0.132 0.000 0.000 0.000  334.000000 178.000000 = 512  |  0.500 0.500 | -2327.914 5 
332  1 0.130 0.131 0.000 0.000 0.000  334.000000 178.000000 = 512  |  0.500 0.500 | -2327.335 5 
333  0 0.129 0.131 0.000 0.000 0.000  334.000000 178.000000 = 512  |  0.500 0.500 | -2328.857 5 
334  1 0.129 0.130 0.000 0.000 0.000  334.000000 178.000000 = 512  |  0.500 0.500 | -2328.674 5 
335  1 0.129 0.130 0.000 0.000 0.000  334.000000 178.000000 = 512  |  0.500 0.500 | -2327.795 5 
336  1 0.129 0.129 0.000 0.000 0.000  334.000000 178.000000 = 512  |  0.500 0.500 | -2328.481 5 
337  1 0.129 0.129 0.000 0.000 0.000  334.000000 178.000000 = 512  |  0.500 0.500 | -2328.887 5 
338  1 0.129 0.128 0.000 0.000 0.000  334.000000 178.000000 = 512  |  0.500 0.500 | -2328.795 5 
339  1 0.129 0.132 0.000 0.000 0.000  334.000000 178.000000 = 512  |  0.500 0.500 | -2329.299 5 
340  1 0.129 0.136 0.000 0.000 0.000  334.000000 178.000000 = 512  |  0.500 0.500 | -2328.937 5 
341  1 0.129 0.135 0.000 0.000 0.000  334.000000 178.000000 = 512  |  0.500 0.500 | -2327.140 5 
342  1 0.129 0.134 0.000 0.000 0.000  334.000000 178.000000 = 512  |  0.500 0.500 | -2329.577 5 
343  1 0.129 0.134 0.000 0.000 0.000  334.000000 178.000000 = 512  |  0.500 0.500 | -2329.011 5 
344  0 0.128 0.134 0.000 0.000 0.000  334.000000 178.000000 = 512  |  0.500 0.500 | -2329.177 5 
345  0 0.127 0.134 0.000 0.000 0.000  334.000000 178.000000 = 512  |  0.500 0.500 | -2328.438 5 
346  1 0.127 0.138 0.000 0.000 0.000  334.000000 178.000000 = 512  |  0.500 0.500 | -2329.048 5 
347  1 0.127 0.141 0.000 0.000 0.000  334.000000 178.000000 = 512  |  0.500 0.500 | -2328.648 5 
348  1 0.127 0.141 0.000 0.000 0.000  334.000000 178.000000 = 512  |  0.500 0.500 | -2328.160 5 
349  1 0.127 0.140 0.000 0.000 0.000  334.000000 178.000000 = 512  |  0.500 0.500 | -2328.138 5 
350  1 0.127 0.140 0.000 0.000 0.000  334.000000 178.000000 = 512  |  0.500 0.500 | -2329.336 5 
351  0 0.126 0.140 0.000 0.000 0.000  334.000000 178.000000 = 512  |  0.500 0.500 | -2329.811 5 
352  1 0.126 0.139 0.000 0.000 0.000  334.000000 178.000000 = 512  |  0.500 0.500 | -2327.815 5 
353  1 0.126 0.138 0.000 0.000 0.000  334.000000 178.000000 = 512  |  0.500 0.500 | -2328.080 5 
354  1 0.126 0.138 0.000 0.000 0.000  334.000000 178.000000 = 512  |  0.500 0.500 | -2330.220 5 
355  1 0.126 0.137 0.000 0.000 0.000  334.000000 178.000000 = 512  |  0.500 0.500 | -2329.432 5 
356  1 0.126 0.137 0.000 0.000 0.000  334.000000 178.000000 = 512  |  0.500 0.500 | -2326.847 5 
357  1 0.126 0.136 0.000 0.000 0.000  334.000000 178.000000 = 512  |  0.500 0.500 | -2329.773 5 
358  0 0.124 0.136 0.000 0.000 0.000  334.000000 178.000000 = 512  |  0.500 0.500 | -2328.361 5 
359  0 0.123 0.136 0.000 0.000 0.000  334.000000 178.000000 = 512  |  0.500 0.500 | -2328.706 5 
360  1 0.123 0.136 0.000 0.000 0.000  334.000000 178.000000 = 512  |  0.500 0.500 | -2329.107 5 
361  1 0.123 0.135 0.000 0.000 0.000  334.000000 178.000000 = 512  |  0.500 0.500 | -2328.532 5 
362  0 0.122 0.135 0.000 0.000 0.000  334.000000 178.000000 = 512  |  0.500 0.500 | -2328.920 5 
363  0 0.126 0.135 0.000 0.000 0.000  334.000000 178.000000 = 512  |  0.500 0.500 | -2329.360 5 
364  1 0.126 0.134 0.000 0.000 0.000  334.000000 178.000000 = 512  |  0.500 0.500 | -2327.988 5 
365  0 0.124 0.134 0.000 0.000 0.000  334.000000 178.000000 = 512  |  0.500 0.500 | -2328.250 5 
366  1 0.124 0.134 0.000 0.000 0.000  334.000000 178.000000 = 512  |  0.500 0.500 | -2330.145 5 
367  1 0.124 0.137 0.000 0.000 0.000  334.000000 178.000000 = 512  |  0.500 0.500 | -2327.648 5 
368  1 0.124 0.137 0.000 0.000 0.000  334.000000 178.000000 = 512  |  0.500 0.500 | -2328.367 5 
369  0 0.123 0.137 0.000 0.000 0.000  334.000000 178.000000 = 512  |  0.500 0.500 | -2329.728 5 
370  0 0.122 0.137 0.000 0.000 0.000  334.000000 178.000000 = 512  |  0.500 0.500 | -2328.366 5 
371  1 0.122 0.136 0.000 0.000 0.000  334.000000 178.000000 = 512  |  0.500 0.500 | -2327.591 5 
372  0 0.121 0.136 0.000 0.000 0.000  334.000000 178.000000 = 512  |  0.500 0.500 | -2329.274 5 
373  1 0.121 0.136 0.000 0.000 0.000  334.000000 178.000000 = 512  |  0.500 0.500 | -2328.400 5 
374  0 0.120 0.136 0.000 0.000 0.000  334.000000 178.000000 = 512  |  0.500 0.500 | -2328.636 5 
375  1 0.120 0.139 0.000 0.000 0.000  334.000000 178.000000 = 512  |  0.500 0.500 | -2328.608 5 
376  0 0.124 0.139 0.000 0.000 0.000  334.000000 178.000000 = 512  |  0.500 0.500 | -2329.138 5 
377  1 0.124 0.139 0.000 0.000 0.000  334.000000 178.000000 = 512  |  0.500 0.500 | -2328.413 5 
378  0 0.123 0.139 0.000 0.000 0.000  334.000000 178.000000 = 512  |  0.500 0.500 | -2329.345 5 
379  0 0.122 0.139 0.000 0.000 0.000  334.000000 178.000000 = 512  |  0.500 0.500 | -2329.198 5 
380  1 0.122 0.138 0.000 0.000 0.000  334.000000 178.000000 = 512  |  0.500 0.500 | -2328.216 5 
381  0 0.121 0.138 0.000 0.000 0.000  334.000000 178.000000 = 512  |  0.500 0.500 | -2328.706 5 
382  1 0.121 0.138 0.000 0.000 0.000  334.000000 178.000000 = 512  |  0.500 0.500 | -2329.770 5 
383  1 0.121 0.137 0.000 0.000 0.000  334.000000 178.000000 = 512  |  0.500 0.500 | -2328.593 5 
384  1 0.121 0.136 0.000 0.000 0.000  334.000000 178.000000 = 512  |  0.500 0.500 | -2329.104 5 
385  1 0.121 0.136 0.000 0.000 0.000  334.000000 178.000000 = 512  |  0.500 0.500 | -2328.431 5 
386  1 0.121 0.135 0.000 0.000 0.000  334.000000 178.000000 = 512  |  0.500 0.500 | -2328.249 5 
387  0 0.120 0.135 0.000 0.000 0.000  334.000000 178.000000 = 512  |  0.500 0.500 | -2330.093 5 
388  0 0.123 0.135 0.000 0.000 0.000  334.000000 178.000000 = 512  |  0.500 0.500 | -2328.681 5 
389  0 0.122 0.135 0.000 0.000 0.000  334.000000 178.000000 = 512  |  0.500 0.500 | -2328.393 5 
390  0 0.121 0.135 0.000 0.000 0.000  334.000000 178.000000 = 512  |  0.500 0.500 | -2329.575 5 
391  0 0.120 0.135 0.000 0.000 0.000  334.000000 178.000000 = 512  |  0.500 0.500 | -2329.236 5 
392  1 0.120 0.135 0.000 0.000 0.000  334.000000 178.000000 = 512  |  0.500 0.500 | -2328.140 5 
393  0 0.119 0.135 0.000 0.000 0.000  334.000000 178.000000 = 512  |  0.500 0.500 | -2330.005 5 
394  1 0.119 0.134 0.000 0.000 0.000  334.000000 178.000000 = 512  |  0.500 0.500 | -2329.208 5 
395  1 0.119 0.134 0.000 0.000 0.000  334.000000 178.000000 = 512  |  0.500 0.500 | -2328.279 5 
396  1 0.119 0.133 0.000 0.000 0.000  334.000000 178.000000 = 512  |  0.500 0.500 | -2328.333 5 
397  1 0.119 0.133 0.000 0.000 0.000  334.000000 178.000000 = 512  |  0.500 0.500 | -2329.755 5 
398  1 0.119 0.132 0.000 0.000 0.000  334.000000 178.000000 = 512  |  0.500 0.500 | -2328.978 5 
399  1 0.119 0.132 0.000 0.000 0.000  334.000000 178.000000 = 512  |  0.500 0.500 | -2327.590 5 
400  1 0.119 0.131 0.000 0.000 0.000  334.000000 178.000000 = 512  |  0.500 0.500 | -2329.721 5 
401  1 0.119 0.131 0.000 0.000 0.000  334.000000 178.000000 = 512  |  0.500 0.500 | -2328.648 5 
402  0 0.118 0.131 0.000 0.000 0.000  334.000000 178.000000 = 512  |  0.500 0.500 | -2328.757 5 
403  1 0.118 0.134 0.000 0.000 0.000  334.000000 178.000000 = 512  |  0.500 0.500 | -2328.639 5 
404  1 0.118 0.134 0.000 0.000 0.000  334.000000 178.000000 = 512  |  0.500 0.500 | -2329.252 5 
405  1 0.118 0.137 0.000 0.000 0.000  334.000000 178.000000 = 512  |  0.500 0.500 | -2329.715 5 
406  1 0.118 0.136 0.000 0.000 0.000  334.000000 178.000000 = 512  |  0.500 0.500 | -2327.994 5 
407  1 0.118 0.139 0.000 0.000 0.000  334.000000 178.000000 = 512  |  0.500 0.500 | -2328.719 5 
408  0 0.117 0.139 0.000 0.000 0.000  334.000000 178.000000 = 512  |  0.500 0.500 | -2328.804 5 
409  1 0.117 0.139 0.000 0.000 0.000  334.000000 178.000000 = 512  |  0.500 0.500 | -2330.057 5 
410  1 0.117 0.138 0.000 0.000 0.000  334.000000 178.000000 = 512  |  0.500 0.500 | -2327.953 5 
411  1 0.117 0.138 0.000 0.000 0.000  334.000000 178.000000 = 512  |  0.500 0.500 | -2329.936 5 
412  1 0.117 0.137 0.000 0.000 0.000  334.000000 178.000000 = 512  |  0.500 0.500 | -2329.059 5 
413  0 0.116 0.137 0.000 0.000 0.000  334.000000 178.000000 = 512  |  0.500 0.500 | -2329.891 5 
414  1 0.116 0.137 0.000 0.000 0.000  334.000000 178.000000 = 512  |  0.500 0.500 | -2327.960 5 
415  1 0.116 0.136 0.000 0.000 0.000  334.000000 178.000000 = 512  |  0.500 0.500 | -2329.251 5 
416  1 0.116 0.136 0.000 0.000 0.000  334.000000 178.000000 = 512  |  0.500 0.500 | -2329.110 5 
417  0 0.119 0.136 0.000 0.000 0.000  334.000000 178.000000 = 512  |  0.500 0.500 | -2329.164 5 
418  0 0.118 0.136 0.000 0.000 0.000  334.000000 178.000000 = 512  |  0.500 0.500 | -2330.050 5 
419  1 0.118 0.135 0.000 0.000 0.000  334.000000 178.000000 = 512  |  0.500 0.500 | -2328.366 5 
420  0 0.117 0.135 0.000 0.000 0.000  334.000000 178.000000 = 512  |  0.500 0.500 | -2328.856 5 
421  0 0.117 0.135 0.000 0.000 0.000  334.000000 178.000000 = 512  |  0.500 0.500 | -2329.113 5 
422  1 0.117 0.139 0.000 0.000 0.000  334.000000 178.000000 = 512  |  0.500 0.500 | -2329.960 5 
423  1 0.117 0.138 0.000 0.000 0.000  334.000000 178.000000 = 512  |  0.500 0.500 | -2329.265 5 
424  1 0.117 0.138 0.000 0.000 0.000  334.000000 178.000000 = 512  |  0.500 0.500 | -2328.716 5 
425  0 0.116 0.138 0.000 0.000 0.000  334.000000 178.000000 = 512  |  0.500 0.500 | -2328.989 5 
426  1 0.116 0.137 0.000 0.000 0.000  334.000000 178.000000 = 512  |  0.500 0.500 | -2328.839 5 
427  0 0.115 0.137 0.000 0.000 0.000  334.000000 178.000000 = 512  |  0.500 0.500 | -2329.437 5 
428  0 0.118 0.137 0.000 0.000 0.000  334.000000 178.000000 = 512  |  0.500 0.500 | -2328.733 5 
429  1 0.118 0.137 0.000 0.000 0.000  334.000000 178.000000 = 512  |  0.500 0.500 | -2328.958 5 
430  0 0.120 0.137 0.000 0.000 0.000  334.000000 178.000000 = 512  |  0.500 0.500 | -2329.011 5 
431  1 0.120 0.136 0.000 0.000 0.000  334.000000 178.000000 = 512  |  0.500 0.500 | -2330.145 5 
432  1 0.120 0.136 0.000 0.000 0.000  334.000000 178.000000 = 512  |  0.500 0.500 | -2328.525 5 
433  1 0.120 0.135 0.000 0.000 0.000  334.000000 178.000000 = 512  |  0.500 0.500 | -2329.740 5 
434  1 0.120 0.135 0.000 0.000 0.000  334.000000 178.000000 = 512  |  0.500 0.500 | -2328.968 5 
435  1 0.120 0.134 0.000 0.000 0.000  334.000000 178.000000 = 512  |  0.500 0.500 | -2329.074 5 
436  1 0.120 0.134 0.000 0.000 0.000  334.000000 178.000000 = 512  |  0.500 0.500 | -2329.446 5 
437  1 0.120 0.137 0.000 0.000 0.000  334.000000 178.000000 = 512  |  0.500 0.500 | -2330.462 5 
438  1 0.120 0.136 0.000 0.000 0.000  334.000000 178.000000 = 512  |  0.500 0.500 | -2328.609 5 
439  1 0.120 0.136 0.000 0.000 0.000  334.000000 178.000000 = 512  |  0.500 0.500 | -2330.154 5 
440  1 0.120 0.139 0.000 0.000 0.000  334.000000 178.000000 = 512  |  0.500 0.500 | -2328.808 5 
441  1 0.120 0.138 0.000 0.000 0.000  334.000000 178.000000 = 512  |  0.500 0.500 | -2329.934 5 
442  0 0.119 0.138 0.000 0.000 0.000  334.000000 178.000000 = 512  |  0.500 0.500 | -2330.481 5 
443  1 0.119 0.138 0.000 0.000 0.000  334.000000 178.000000 = 512  |  0.500 0.500 | -2329.990 5 
444  1 0.119 0.137 0.000 0.000 0.000  334.000000 178.000000 = 512  |  0.500 0.500 | -2329.429 5 
445  0 0.119 0.137 0.000 0.000 0.000  334.000000 178.000000 = 512  |  0.500 0.500 | -2330.201 5 
446  1 0.119 0.137 0.000 0.000 0.000  334.000000 178.000000 = 512  |  0.500 0.500 | -2328.783 5 
447  1 0.119 0.136 0.000 0.000 0.000  334.000000 178.000000 = 512  |  0.500 0.500 | -2330.862 5 
448  1 0.119 0.136 0.000 0.000 0.000  334.000000 178.000000 = 512  |  0.500 0.500 | -2330.068 5 
449  0 0.118 0.136 0.000 0.000 0.000  334.000000 178.000000 = 512  |  0.500 0.500 | -2329.467 5 
450  0 0.117 0.136 0.000 0.000 0.000  334.000000 178.000000 = 512  |  0.500 0.500 | -2331.161 5 
451  1 0.117 0.136 0.000 0.000 0.000  334.000000 178.000000 = 512  |  0.500 0.500 | -2330.227 5 
452  1 0.117 0.135 0.000 0.000 0.000  334.000000 178.000000 = 512  |  0.500 0.500 | -2329.713 5 
453  1 0.117 0.138 0.000 0.000 0.000  334.000000 178.000000 = 512  |  0.500 0.500 | -2329.904 5 
454  0 0.116 0.138 0.000 0.000 0.000  334.000000 178.000000 = 512  |  0.500 0.500 | -2330.192 5 
455  1 0.116 0.137 0.000 0.000 0.000  334.000000 178.000000 = 512  |  0.500 0.500 | -2330.802 5 
456  0 0.122 0.137 0.000 0.000 0.000  334.000000 178.000000 = 512  |  0.500 0.500 | -2331.533 5 
457  1 0.122 0.137 0.000 0.000 0.000  334.000000 178.000000 = 512  |  0.500 0.500 | -2329.984 5 
458  1 0.122 0.137 0.000 0.000 0.000  334.000000 178.000000 = 512  |  0.500 0.500 | -2331.115 5 
459  1 0.122 0.139 0.000 0.000 0.000  334.000000 178.000000 = 512  |  0.500 0.500 | -2330.600 5 
460  1 0.122 0.139 0.000 0.000 0.000  334.000000 178.000000 = 512  |  0.500 0.500 | -2331.100 5 
461  1 0.122 0.138 0.000 0.000 0.000  334.000000 178.000000 = 512  |  0.500 0.500 | -2331.926 5 
462  1 0.122 0.138 0.000 0.000 0.000  334.000000 178.000000 = 512  |  0.500 0.500 | -2329.691 5 
463  1 0.122 0.138 0.000 0.000 0.000  334.000000 178.000000 = 512  |  0.500 0.500 | -2330.837 5 
464  1 0.122 0.137 0.000 0.000 0.000  334.000000 178.000000 = 512  |  0.500 0.500 | -2331.102 5 
465  0 0.125 0.137 0.000 0.000 0.000  334.000000 178.000000 = 512  |  0.500 0.500 | -2331.726 5 
466  0 0.124 0.137 0.000 0.000 0.000  334.000000 178.000000 = 512  |  0.500 0.500 | -2329.982 5 
467  0 0.123 0.137 0.000 0.000 0.000  334.000000 178.000000 = 512  |  0.500 0.500 | -2330.695 5 
468  1 0.123 0.137 0.000 0.000 0.000  334.000000 178.000000 = 512  |  0.500 0.500 | -2332.017 5 
469  1 0.123 0.136 0.000 0.000 0.000  334.000000 178.000000 = 512  |  0.500 0.500 | -2329.886 5 
470  1 0.123 0.136 0.000 0.000 0.000  334.000000 178.000000 = 512  |  0.500 0.500 | -2332.344 5 
471  1 0.123 0.135 0.000 0.000 0.000  334.000000 178.000000 = 512  |  0.500 0.500 | -2330.429 5 
472  1 0.123 0.135 0.000 0.000 0.000  334.000000 178.000000 = 512  |  0.500 0.500 | -2331.352 5 
473  1 0.123 0.135 0.000 0.000 0.000  334.000000 178.000000 = 512  |  0.500 0.500 | -2331.908 5 
474  1 0.123 0.134 0.000 0.000 0.000  334.000000 178.000000 = 512  |  0.500 0.500 | -2331.788 5 
475  0 0.122 0.134 0.000 0.000 0.000  334.000000 178.000000 = 512  |  0.500 0.500 | -2330.542 5 
476  1 0.122 0.134 0.000 0.000 0.000  334.000000 178.000000 = 512  |  0.500 0.500 | -2332.046 5 
477  1 0.122 0.133 0.000 0.000 0.000  334.000000 178.000000 = 512  |  0.500 0.500 | -2331.765 5 
478  1 0.122 0.133 0.000 0.000 0.000  334.000000 178.000000 = 512  |  0.500 0.500 | -2331.078 5 
479  0 0.121 0.133 0.000 0.000 0.000  334.000000 178.000000 = 512  |  0.500 0.500 | -2331.460 5 
480  1 0.121 0.133 0.000 0.000 0.000  334.000000 178.000000 = 512  |  0.500 0.500 | -2331.955 5 
481  1 0.121 0.132 0.000 0.000 0.000  334.000000 178.000000 = 512  |  0.500 0.500 | -2332.326 5 
482  1 0.121 0.132 0.000 0.000 0.000  334.000000 178.000000 = 512  |  0.500 0.500 | -2331.935 5 
483  1 0.121 0.131 0.000 0.000 0.000  334.000000 178.000000 = 512  |  0.500 0.500 | -2332.474 5 
484  1 0.121 0.131 0.000 0.000 0.000  334.000000 178.000000 = 512  |  0.500 0.500 | -2332.099 5 
485  0 0.121 0.131 0.000 0.000 0.000  334.000000 178.000000 = 512  |  0.500 0.500 | -2331.154 5 
486  1 0.121 0.131 0.000 0.000 0.000  334.000000 178.000000 = 512  |  0.500 0.500 | -2332.275 5 
487  1 0.121 0.130 0.000 0.000 0.000  334.000000 178.000000 = 512  |  0.500 0.500 | -2333.185 5 
488  0 0.120 0.130 0.000 0.000 0.000  334.000000 178.000000 = 512  |  0.500 0.500 | -2332.257 5 
489  1 0.120 0.130 0.000 0.000 0.000  334.000000 178.000000 = 512  |  0.500 0.500 | -2331.252 5 
490  1 0.120 0.129 0.000 0.000 0.000  334.000000 178.000000 = 512  |  0.500 0.500 | -2331.517 5 
491  1 0.120 0.129 0.000 0.000 0.000  334.000000 178.000000 = 512  |  0.500 0.500 | -2332.648 5 
492  1 0.120 0.129 0.000 0.000 0.000  334.000000 178.000000 = 512  |  0.500 0.500 | -2331.902 5 
493  1 0.120 0.128 0.000 0.000 0.000  334.000000 178.000000 = 512  |  0.500 0.500 | -2332.997 5 
494  0 0.122 0.128 0.000 0.000 0.000  334.000000 178.000000 = 512  |  0.500 0.500 | -2330.599 5 
495  1 0.122 0.128 0.000 0.000 0.000  334.000000 178.000000 = 512  |  0.500 0.500 | -2331.551 5 
496  1 0.122 0.130 0.000 0.000 0.000  334.000000 178.000000 = 512  |  0.500 0.500 | -2330.846 5 
497  1 0.122 0.130 0.000 0.000 0.000  334.000000 178.000000 = 512  |  0.500 0.500 | -2332.812 5 
498  1 0.122 0.130 0.000 0.000 0.000  334.000000 178.000000 = 512  |  0.500 0.500 | -2333.150 5 
499  1 0.122 0.132 0.000 0.000 0.000  334.000000 178.000000 = 512  |  0.500 0.500 | -2330.088 5 
500  1 0.122 0.132 0.000 0.000 0.000  334.000000 178.000000 = 512  |  0.500 0.500 | -2332.401 5 
501  0 0.121 0.132 0.000 0.000 0.000  334.000000 178.000000 = 512  |  0.500 0.500 | -2331.377 5 
502  1 0.121 0.131 0.000 0.000 0.000  334.000000 178.000000 = 512  |  0.500 0.500 | -2331.555 5 
503  0 0.121 0.131 0.000 0.000 0.000  334.000000 178.000000 = 512  |  0.500 0.500 | -2331.776 5 
504  2 0.121 0.131 0.000 0.000 0.000  334.000000 178.000000 = 512  |  0.500 0.500 | -2330.713 5 
505  2 0.121 0.131 0.000 0.000 0.000  334.000000 178.000000 = 512  |  0.500 0.500 | -2329.863 5 
506  1 0.121 0.134 0.000 0.000 0.000  334.000000 178.000000 = 512  |  0.500 0.500 | -2331.549 5 
507  0 0.120 0.134 0.000 0.000 0.000  334.000000 178.000000 = 512  |  0.500 0.500 | -2331.357 5 
508  2 0.120 0.134 0.286 0.000 0.000  334.000000 178.000000 = 512  |  0.490 0.510 | -2330.607 5 
509  2 0.120 0.134 0.222 0.000 0.000  333.000000 179.000000 = 512  |  0.490 0.510 | -2331.651 5 
510  0 0.119 0.134 0.222 0.000 0.000  333.000000 179.000000 = 512  |  0.490 0.510 | -2331.521 5 
511  2 0.119 0.134 0.182 0.000 0.000  333.000000 179.000000 = 512  |  0.490 0.510 | -2331.919 5 
512  0 0.119 0.134 0.182 0.000 0.000  333.000000 179.000000 = 512  |  0.490 0.510 | -2330.395 5 
513  0 0.121 0.134 0.182 0.000 0.000  333.000000 179.000000 = 512  |  0.490 0.510 | -2332.053 5 
514  0 0.120 0.134 0.182 0.000 0.000  333.000000 179.000000 = 512  |  0.490 0.510 | -2330.579 5 
515  0 0.119 0.134 0.182 0.000 0.000  333.000000 179.000000 = 512  |  0.490 0.510 | -2332.534 5 
516  0 0.119 0.134 0.182 0.000 0.000  333.000000 179.000000 = 512  |  0.490 0.510 | -2329.525 5 
517  1 0.119 0.134 0.182 0.000 0.000  333.000000 179.000000 = 512  |  0.489 0.511 | -2332.805 5 
518  2 0.119 0.134 0.154 0.000 0.000  333.000000 179.000000 = 512  |  0.489 0.511 | -2331.944 5 
519  0 0.121 0.134 0.154 0.000 0.000  333.000000 179.000000 = 512  |  0.489 0.511 | -2330.881 5 
520  1 0.121 0.133 0.154 0.000 0.000  333.000000 179.000000 = 512  |  0.489 0.511 | -2331.948 5 
521  0 0.120 0.133 0.154 0.000 0.000  333.000000 179.000000 = 512  |  0.489 0.511 | -2331.977 5 
522  0 0.120 0.133 0.154 0.000 0.000  333.000000 179.000000 = 512  |  0.489 0.511 | -2331.650 5 
523  0 0.119 0.133 0.154 0.000 0.000  333.000000 179.000000 = 512  |  0.489 0.511 | -2332.138 5 
524  1 0.119 0.136 0.154 0.000 0.000  333.000000 179.000000 = 512  |  0.490 0.510 | -2332.098 5 
525  1 0.119 0.135 0.154 0.000 0.000  333.000000 179.000000 = 512  |  0.490 0.510 | -2331.396 5 
526  2 0.119 0.135 0.133 0.000 0.000  333.000000 179.000000 = 512  |  0.490 0.510 | -2331.912 5 
527  1 0.119 0.135 0.133 0.000 0.000  333.000000 179.000000 = 512  |  0.491 0.509 | -2332.106 5 
528  0 0.121 0.135 0.133 0.000 0.000  333.000000 179.000000 = 512  |  0.491 0.509 | -2332.296 5 
529  2 0.121 0.135 0.118 0.000 0.000  333.000000 179.000000 = 512  |  0.491 0.509 | -2332.488 5 
530  0 0.120 0.135 0.118 0.000 0.000  333.000000 179.000000 = 512  |  0.491 0.509 | -2333.781 5 
531  2 0.120 0.135 0.105 0.000 0.000  333.000000 179.000000 = 512  |  0.491 0.509 | -2331.565 5 
532  1 0.120 0.134 0.105 0.000 0.000  333.000000 179.000000 = 512  |  0.490 0.510 | -2332.279 5 
533  2 0.120 0.134 0.095 0.000 0.000  333.000000 179.000000 = 512  |  0.490 0.510 | -2333.429 5 
534  2 0.120 0.134 0.087 0.000 0.000  333.000000 179.000000 = 512  |  0.490 0.510 | -2331.941 5 
535  1 0.120 0.134 0.087 0.000 0.000  333.000000 179.000000 = 512  |  0.490 0.510 | -2333.443 5 
536  0 0.120 0.134 0.087 0.000 0.000  333.000000 179.000000 = 512  |  0.490 0.510 | -2334.094 5 
537  2 0.120 0.134 0.080 0.000 0.000  333.000000 179.000000 = 512  |  0.490 0.510 | -2332.158 5 
538  1 0.120 0.134 0.080 0.000 0.000  333.000000 179.000000 = 512  |  0.491 0.509 | -2332.149 5 
539  2 0.120 0.134 0.074 0.000 0.000  333.000000 179.000000 = 512  |  0.491 0.509 | -2332.747 5 
540  0 0.119 0.134 0.074 0.000 0.000  333.000000 179.000000 = 512  |  0.491 0.509 | -2332.564 5 
541  0 0.118 0.134 0.074 0.000 0.000  333.000000 179.000000 = 512  |  0.491 0.509 | -2333.671 5 
542  0 0.118 0.134 0.074 0.000 0.000  333.000000 179.000000 = 512  |  0.491 0.509 | -2332.300 5 
543  2 0.118 0.134 0.069 0.000 0.000  333.000000 179.000000 = 512  |  0.491 0.509 | -2332.866 5 
544  1 0.118 0.133 0.069 0.000 0.000  333.000000 179.000000 = 512  |  0.491 0.509 | -2333.279 5 
545  1 0.118 0.133 0.069 0.000 0.000  333.000000 179.000000 = 512  |  0.490 0.510 | -2332.450 5 
546  0 0.117 0.133 0.069 0.000 0.000  333.000000 179.000000 = 512  |  0.490 0.510 | -2332.928 5 
547  1 0.117 0.133 0.069 0.000 0.000  333.000000 179.000000 = 512  |  0.490 0.510 | -2333.532 5 
548  0 0.116 0.133 0.069 0.000 0.000  333.000000 179.000000 = 512  |  0.490 0.510 | -2332.754 5 
549  0 0.118 0.133 0.069 0.000 0.000  333.000000 179.000000 = 512  |  0.490 0.510 | -2334.397 5 
550  1 0.118 0.132 0.069 0.000 0.000  333.000000 179.000000 = 512  |  0.491 0.509 | -2332.730 5 
551  0 0.118 0.132 0.069 0.000 0.000  333.000000 179.000000 = 512  |  0.491 0.509 | -2332.238 5 
552  1 0.118 0.135 0.069 0.000 0.000  333.000000 179.000000 = 512  |  0.490 0.510 | -2333.360 5 
553  0 0.117 0.135 0.069 0.000 0.000  333.000000 179.000000 = 512  |  0.490 0.510 | -2333.160 5 
554  1 0.117 0.134 0.069 0.000 0.000  333.000000 179.000000 = 512  |  0.489 0.511 | -2332.857 5 
555  1 0.117 0.134 0.069 0.000 0.000  333.000000 179.000000 = 512  |  0.489 0.511 | -2332.289 5 
556  2 0.117 0.134 0.129 0.000 0.000  333.000000 179.000000 = 512  |  0.480 0.520 | -2332.993 5 
557  0 0.117 0.134 0.129 0.000 0.000  332.000000 180.000000 = 512  |  0.480 0.520 | -2332.528 5 
558  2 0.117 0.134 0.121 0.000 0.000  332.000000 180.000000 = 512  |  0.480 0.520 | -2332.141 5 
559  1 0.117 0.134 0.121 0.000 0.000  332.000000 180.000000 = 512  |  0.481 0.519 | -2333.461 5 
560  2 0.117 0.134 0.114 0.000 0.000  332.000000 180.000000 = 512  |  0.481 0.519 | -2331.556 5 
561  1 0.117 0.133 0.114 0.000 0.000  332.000000 180.000000 = 512  |  0.479 0.521 | -2333.456 5 
562  0 0.116 0.133 0.114 0.000 0.000  332.000000 180.000000 = 512  |  0.479 0.521 | -2330.296 5 
563  2 0.116 0.133 0.108 0.000 0.000  332.000000 180.000000 = 512  |  0.479 0.521 | -2332.879 5 
564  2 0.116 0.133 0.103 0.000 0.000  332.000000 180.000000 = 512  |  0.479 0.521 | -2332.136 5 
565  2 0.116 0.133 0.098 0.000 0.000  332.000000 180.000000 = 512  |  0.479 0.521 | -2332.005 5 
566  1 0.116 0.133 0.098 0.000 0.000  332.000000 180.000000 = 512  |  0.481 0.519 | -2331.538 5 
567  2 0.116 0.133 0.093 0.000 0.000  332.000000 180.000000 = 512  |  0.481 0.519 | -2330.099 5 
568  2 0.116 0.133 0.089 0.000 0.000  332.000000 180.000000 = 512  |  0.481 0.519 | -2331.714 5 
569  0 0.115 0.133 0.089 0.000 0.000  332.000000 180.000000 = 512  |  0.481 0.519 | -2330.941 5 
570  2 0.115 0.133 0.085 0.000 0.000  332.000000 180.000000 = 512  |  0.481 0.519 | -2331.785 5 
571  2 0.115 0.133 0.082 0.000 0.000  332.000000 180.000000 = 512  |  0.481 0.519 | -2330.066 5 
572  2 0.115 0.133 0.078 0.000 0.000  332.000000 180.000000 = 512  |  0.481 0.519 | -2331.251 5 
573  2 0.115 0.133 0.113 0.000 0.000  332.000000 180.000000 = 512  |  0.453 0.547 | -2330.797 5 
574  2 0.115 0.133 0.109 0.000 0.000  329.000000 183.000000 = 512  |  0.453 0.547 | -2331.990 5 
575  0 0.115 0.133 0.109 0.000 0.000  329.000000 183.000000 = 512  |  0.453 0.547 | -2331.944 5 
576  2 0.115 0.133 0.105 0.000 0.000  329.000000 183.000000 = 512  |  0.453 0.547 | -2331.370 5 
577  1 0.115 0.132 0.105 0.000 0.000  329.000000 183.000000 = 512  |  0.451 0.549 | -2330.821 5 
578  1 0.115 0.132 0.105 0.000 0.000  329.000000 183.000000 = 512  |  0.451 0.549 | -2332.105 5 
579  1 0.115 0.132 0.105 0.000 0.000  329.000000 183.000000 = 512  |  0.451 0.549 | -2332.114 5 
580  1 0.115 0.131 0.105 0.000 0.000  329.000000 183.000000 = 512  |  0.451 0.549 | -2332.640 5 
581  2 0.115 0.131 0.102 0.000 0.000  329.000000 183.000000 = 512  |  0.451 0.549 | -2333.105 5 
582  1 0.115 0.134 0.102 0.000 0.000  329.000000 183.000000 = 512  |  0.451 0.549 | -2330.680 5 
583  1 0.115 0.133 0.102 0.000 0.000  329.000000 183.000000 = 512  |  0.453 0.547 | -2332.935 5 
584  0 0.114 0.133 0.102 0.000 0.000  329.000000 183.000000 = 512  |  0.453 0.547 | -2330.914 5 
585  2 0.114 0.133 0.098 0.000 0.000  329.000000 183.000000 = 512  |  0.453 0.547 | -2332.561 5 
586  1 0.114 0.133 0.098 0.000 0.000  329.000000 183.000000 = 512  |  0.449 0.551 | -2330.343 5 
587  0 0.113 0.133 0.098 0.000 0.000  329.000000 183.000000 = 512  |  0.449 0.551 | -2333.642 5 
588  1 0.113 0.133 0.098 0.000 0.000  329.000000 183.000000 = 512  |  0.449 0.551 | -2333.704 5 
589  2 0.113 0.133 0.095 0.000 0.000  329.000000 183.000000 = 512  |  0.449 0.551 | -2331.909 5 
590  1 0.113 0.135 0.095 0.000 0.000  329.000000 183.000000 = 512  |  0.453 0.547 | -2334.652 5 
591  0 0.113 0.135 0.095 0.000 0.000  329.000000 183.000000 = 512  |  0.453 0.547 | -2333.335 5 
592  1 0.113 0.135 0.095 0.000 0.000  329.000000 183.000000 = 512  |  0.455 0.545 | -2333.129 5 
593  1 0.113 0.137 0.095 0.000 0.000  329.000000 183.000000 = 512  |  0.455 0.545 | -2333.251 5 
594  2 0.113 0.137 0.092 0.000 0.000  329.000000 183.000000 = 512  |  0.455 0.545 | -2334.505 5 
595  2 0.113 0.137 0.090 0.000 0.000  329.000000 183.000000 = 512  |  0.455 0.545 | -2333.953 5 
596  1 0.113 0.137 0.090 0.000 0.000  329.000000 183.000000 = 512  |  0.453 0.547 | -2333.441 5 
597  0 0.112 0.137 0.090 0.000 0.000  329.000000 183.000000 = 512  |  0.453 0.547 | -2334.733 5 
598  0 0.112 0.137 0.090 0.000 0.000  329.000000 183.000000 = 512  |  0.453 0.547 | -2334.427 5 
599  0 0.111 0.137 0.090 0.000 0.000  329.000000 183.000000 = 512  |  0.453 0.547 | -2333.540 5 
600  1 0.111 0.136 0.090 0.000 0.000  329.000000 183.000000 = 512  |  0.456 0.544 | -2334.798 5 
601  1 0.111 0.136 0.090 0.000 0.000  329.000000 183.000000 = 512  |  0.456 0.544 | -2332.856 5 
602  2 0.111 0.136 0.087 0.000 0.000  329.000000 183.000000 = 512  |  0.456 0.544 | -2334.106 5 
603  1 0.111 0.135 0.087 0.000 0.000  329.000000 183.000000 = 512  |  0.456 0.544 | -2333.700 5 
604  2 0.111 0.135 0.085 0.000 0.000  329.000000 183.000000 = 512  |  0.456 0.544 | -2333.486 5 
605  0 0.111 0.135 0.085 0.000 0.000  329.000000 183.000000 = 512  |  0.456 0.544 | -2333.189 5 
606  2 0.111 0.135 0.082 0.000 0.000  329.000000 183.000000 = 512  |  0.456 0.544 | -2334.620 5 
607  2 0.111 0.135 0.080 0.000 0.000  329.000000 183.000000 = 512  |  0.456 0.544 | -2333.472 5 
608  2 0.111 0.135 0.078 0.000 0.000  329.000000 183.000000 = 512  |  0.456 0.544 | -2333.856 5 
609  2 0.111 0.135 0.076 0.000 0.000  329.000000 183.000000 = 512  |  0.456 0.544 | -2332.950 5 
610  0 0.110 0.135 0.076 0.000 0.000  329.000000 183.000000 = 512  |  0.456 0.544 | -2333.523 5 
611  2 0.110 0.135 0.074 0.000 0.000  329.000000 183.000000 = 512  |  0.456 0.544 | -2333.897 5 
612  2 0.110 0.135 0.072 0.000 0.000  329.000000 183.000000 = 512  |  0.456 0.544 | -2334.193 5 
613  2 0.110 0.135 0.071 0.000 0.000  329.000000 183.000000 = 512  |  0.456 0.544 | -2333.026 5 
614  1 0.110 0.135 0.071 0.000 0.000  329.000000 183.000000 = 512  |  0.456 0.544 | -2333.548 5 
615  0 0.109 0.135 0.071 0.000 0.000  329.000000 183.000000 = 512  |  0.456 0.544 | -2333.244 5 
616  2 0.109 0.135 0.069 0.000 0.000  329.000000 183.000000 = 512  |  0.456 0.544 | -2333.604 5 
617  0 0.109 0.135 0.069 0.000 0.000  329.000000 183.000000 = 512  |  0.456 0.544 | -2332.802 5 
618  2 0.109 0.135 0.067 0.000 0.000  329.000000 183.000000 = 512  |  0.456 0.544 | -2333.473 5 
619  1 0.109 0.135 0.067 0.000 0.000  329.000000 183.000000 = 512  |  0.453 0.547 | -2332.960 5 
620  1 0.109 0.134 0.067 0.000 0.000  329.000000 183.000000 = 512  |  0.456 0.544 | -2334.984 5 
621  2 0.109 0.134 0.066 0.000 0.000  329.000000 183.000000 = 512  |  0.456 0.544 | -2331.376 5 
622  0 0.108 0.134 0.066 0.000 0.000  329.000000 183.000000 = 512  |  0.456 0.544 | -2334.731 5 
623  2 0.108 0.134 0.065 0.000 0.000  329.000000 183.000000 = 512  |  0.456 0.544 | -2332.661 5 
624  0 0.108 0.134 0.065 0.000 0.000  329.000000 183.000000 = 512  |  0.456 0.544 | -2333.097 5 
625  2 0.108 0.134 0.063 0.000 0.000  329.000000 183.000000 = 512  |  0.456 0.544 | -2331.665 5 
626  2 0.108 0.134 0.062 0.000 0.000  329.000000 183.000000 = 512  |  0.456 0.544 | -2332.516 5 
627  0 0.107 0.134 0.062 0.000 0.000  329.000000 183.000000 = 512  |  0.456 0.544 | -2332.127 5 
628  1 0.107 0.134 0.062 0.000 0.000  329.000000 183.000000 = 512  |  0.456 0.544 | -2332.739 5 
629  0 0.109 0.134 0.062 0.000 0.000  329.000000 183.000000 = 512  |  0.456 0.544 | -2332.285 5 
630  1 0.109 0.134 0.062 0.000 0.000  329.000000 183.000000 = 512  |  0.456 0.544 | -2332.334 5 
631  2 0.109 0.134 0.081 0.000 0.000  329.000000 183.000000 = 512  |  0.446 0.554 | -2332.882 5 
632  1 0.109 0.133 0.081 0.000 0.000  328.000000 184.000000 = 512  |  0.448 0.552 | -2333.025 5 
633  2 0.109 0.133 0.079 0.000 0.000  328.000000 184.000000 = 512  |  0.448 0.552 | -2331.799 5 
634  2 0.109 0.133 0.078 0.000 0.000  328.000000 184.000000 = 512  |  0.448 0.552 | -2331.682 5 
635  2 0.109 0.133 0.076 0.000 0.000  328.000000 184.000000 = 512  |  0.448 0.552 | -2331.416 5 
636  2 0.109 0.133 0.075 0.000 0.000  328.000000 184.000000 = 512  |  0.448 0.552 | -2332.621 5 
637  2 0.109 0.133 0.073 0.000 0.000  328.000000 184.000000 = 512  |  0.448 0.552 | -2331.261 5 
638  2 0.109 0.133 0.090 0.000 0.000  328.000000 184.000000 = 512  |  0.439 0.561 | -2331.710 5 
639  1 0.109 0.133 0.090 0.000 0.000  327.000000 185.000000 = 512  |  0.441 0.559 | -2333.519 5 
640  0 0.109 0.133 0.090 0.000 0.000  327.000000 185.000000 = 512  |  0.441 0.559 | -2330.069 5 
641  2 0.109 0.133 0.088 0.000 0.000  327.000000 185.000000 = 512  |  0.441 0.559 | -2332.804 5 
642  1 0.109 0.133 0.088 0.000 0.000  327.000000 185.000000 = 512  |  0.436 0.564 | -2331.355 5 
643  2 0.109 0.133 0.087 0.000 0.000  327.000000 185.000000 = 512  |  0.436 0.564 | -2332.049 5 
644  0 0.108 0.133 0.087 0.000 0.000  327.000000 185.000000 = 512  |  0.436 0.564 | -2333.771 5 
645  2 0.108 0.133 0.085 0.000 0.000  327.000000 185.000000 = 512  |  0.436 0.564 | -2332.669 5 
646  0 0.108 0.133 0.085 0.000 0.000  327.000000 185.000000 = 512  |  0.436 0.564 | -2333.127 5 
647  1 0.108 0.132 0.085 0.000 0.000  327.000000 185.000000 = 512  |  0.441 0.559 | -2333.607 5 
648  0 0.107 0.132 0.085 0.000 0.000  327.000000 185.000000 = 512  |  0.441 0.559 | -2332.664 5 
649  1 0.107 0.132 0.085 0.000 0.000  327.000000 185.000000 = 512  |  0.436 0.564 | -2332.763 5 
650  0 0.107 0.132 0.085 0.000 0.000  327.000000 185.000000 = 512  |  0.436 0.564 | -2332.804 5 
651  2 0.107 0.132 0.084 0.000 0.000  327.000000 185.000000 = 512  |  0.436 0.564 | -2333.302 5 
652  1 0.107 0.132 0.084 0.000 0.000  327.000000 185.000000 = 512  |  0.436 0.564 | -2334.357 5 
653  1 0.107 0.131 0.084 0.000 0.000  327.000000 185.000000 = 512  |  0.436 0.564 | -2333.859 5 
654  2 0.107 0.131 0.099 0.000 0.000  327.000000 185.000000 = 512  |  0.431 0.569 | -2334.636 5 
655  2 0.107 0.131 0.098 0.000 0.000  326.000000 186.000000 = 512  |  0.431 0.569 | -2333.053 5 
656  2 0.107 0.131 0.096 0.000 0.000  326.000000 186.000000 = 512  |  0.431 0.569 | -2334.273 5 
657  2 0.107 0.131 0.094 0.000 0.000  326.000000 186.000000 = 512  |  0.431 0.569 | -2332.476 5 
658  2 0.107 0.131 0.093 0.000 0.000  326.000000 186.000000 = 512  |  0.431 0.569 | -2332.639 5 
659  2 0.107 0.131 0.092 0.000 0.000  326.000000 186.000000 = 512  |  0.431 0.569 | -2334.106 5 
660  1 0.107 0.131 0.092 0.000 0.000  326.000000 186.000000 = 512  |  0.433 0.567 | -2334.009 5 
661  1 0.107 0.131 0.092 0.000 0.000  326.000000 186.000000 = 512  |  0.429 0.571 | -2333.292 5 
662  0 0.106 0.131 0.092 0.000 0.000  326.000000 186.000000 = 512  |  0.429 0.571 | -2333.434 5 
663  2 0.106 0.131 0.090 0.000 0.000  326.000000 186.000000 = 512  |  0.429 0.571 | -2334.849 5 
664  1 0.106 0.130 0.090 0.000 0.000  326.000000 186.000000 = 512  |  0.429 0.571 | -2334.602 5 
665  1 0.106 0.132 0.090 0.000 0.000  326.000000 186.000000 = 512  |  0.433 0.567 | -2334.634 5 
666  1 0.106 0.132 0.090 0.000 0.000  326.000000 186.000000 = 512  |  0.431 0.569 | -2335.378 5 
667  2 0.106 0.132 0.089 0.000 0.000  326.000000 186.000000 = 512  |  0.431 0.569 | -2334.686 5 
668  1 0.106 0.132 0.089 0.000 0.000  326.000000 186.000000 = 512  |  0.435 0.565 | -2333.569 5 
669  2 0.106 0.132 0.088 0.000 0.000  326.000000 186.000000 = 512  |  0.435 0.565 | -2333.714 5 
670  1 0.106 0.131 0.088 0.000 0.000  326.000000 186.000000 = 512  |  0.431 0.569 | -2334.775 5 
671  1 0.106 0.131 0.088 0.000 0.000  326.000000 186.000000 = 512  |  0.431 0.569 | -2335.082 5 
672  0 0.106 0.131 0.088 0.000 0.000  326.000000 186.000000 = 512  |  0.431 0.569 | -2335.358 5 
673  0 0.107 0.131 0.088 0.000 0.000  326.000000 186.000000 = 512  |  0.431 0.569 | -2334.217 5 
674  0 0.107 0.131 0.088 0.000 0.000  326.000000 186.000000 = 512  |  0.431 0.569 | -2335.521 5 
675  2 0.107 0.131 0.086 0.000 0.000  326.000000 186.000000 = 512  |  0.431 0.569 | -2335.209 5 
676  2 0.107 0.131 0.085 0.000 0.000  326.000000 186.000000 = 512  |  0.431 0.569 | -2336.694 5 
677  2 0.107 0.131 0.084 0.000 0.000  326.000000 186.000000 = 512  |  0.431 0.569 | -2334.753 5 
678  2 0.107 0.131 0.083 0.000 0.000  326.000000 186.000000 = 512  |  0.431 0.569 | -2335.777 5 
679  0 0.106 0.131 0.083 0.000 0.000  326.000000 186.000000 = 512  |  0.431 0.569 | -2336.343 5 
680  1 0.106 0.131 0.083 0.000 0.000  326.000000 186.000000 = 512  |  0.431 0.569 | -2335.637 5 
681  1 0.106 0.130 0.083 0.000 0.000  326.000000 186.000000 = 512  |  0.435 0.565 | -2335.787 5 
682  0 0.106 0.130 0.083 0.000 0.000  326.000000 186.000000 = 512  |  0.435 0.565 | -2334.483 5 
683  1 0.106 0.130 0.083 0.000 0.000  326.000000 186.000000 = 512  |  0.431 0.569 | -2334.377 5 
684  0 0.105 0.130 0.083 0.000 0.000  326.000000 186.000000 = 512  |  0.431 0.569 | -2334.903 5 
685  2 0.105 0.130 0.082 0.000 0.000  326.000000 186.000000 = 512  |  0.431 0.569 | -2336.822 5 
686  2 0.105 0.130 0.081 0.000 0.000  326.000000 186.000000 = 512  |  0.431 0.569 | -2334.991 5 
687  1 0.105 0.130 0.081 0.000 0.000  326.000000 186.000000 = 512  |  0.431 0.569 | -2336.128 5 
688  2 0.105 0.130 0.079 0.000 0.000  326.000000 186.000000 = 512  |  0.431 0.569 | -2336.392 5 
689  0 0.105 0.130 0.079 0.000 0.000  326.000000 186.000000 = 512  |  0.431 0.569 | -2335.956 5 
690  2 0.105 0.130 0.078 0.000 0.000  326.000000 186.000000 = 512  |  0.431 0.569 | -2335.350 5 
691  2 0.105 0.130 0.077 0.000 0.000  326.000000 186.000000 = 512  |  0.431 0.569 | -2335.609 5 
692  1 0.105 0.130 0.077 0.000 0.000  326.000000 186.000000 = 512  |  0.431 0.569 | -2335.028 5 
693  1 0.105 0.129 0.077 0.000 0.000  326.000000 186.000000 = 512  |  0.431 0.569 | -2334.383 5 
694  0 0.109 0.129 0.077 0.000 0.000  326.000000 186.000000 = 512  |  0.431 0.569 | -2335.313 5 
695  2 0.109 0.129 0.076 0.000 0.000  326.000000 186.000000 = 512  |  0.431 0.569 | -2335.602 5 
696  2 0.109 0.129 0.075 0.000 0.000  326.000000 186.000000 = 512  |  0.431 0.569 | -2334.685 5 
697  1 0.109 0.131 0.075 0.000 0.000  326.000000 186.000000 = 512  |  0.435 0.565 | -2335.424 5 
698  2 0.109 0.131 0.075 0.000 0.000  326.000000 186.000000 = 512  |  0.435 0.565 | -2336.021 5 
699  2 0.109 0.131 0.074 0.000 0.000  326.000000 186.000000 = 512  |  0.435 0.565 | -2332.977 5 
700  2 0.109 0.131 0.073 0.000 0.000  326.000000 186.000000 = 512  |  0.435 0.565 | -2334.346 5 
701  0 0.111 0.131 0.073 0.000 0.000  326.000000 186.000000 = 512  |  0.435 0.565 | -2333.705 5 
702  2 0.111 0.131 0.072 0.000 0.000  326.000000 186.000000 = 512  |  0.435 0.565 | -2332.859 5 
703  0 0.110 0.131 0.072 0.000 0.000  326.000000 186.000000 = 512  |  0.435 0.565 | -2335.292 5 
704  1 0.110 0.131 0.072 0.000 0.000  326.000000 186.000000 = 512  |  0.433 0.567 | -2333.661 5 
705  0 0.112 0.131 0.072 0.000 0.000  326.000000 186.000000 = 512  |  0.433 0.567 | -2334.723 5 
706  0 0.112 0.131 0.072 0.000 0.000  326.000000 186.000000 = 512  |  0.433 0.567 | -2335.476 5 
707  0 0.113 0.131 0.072 0.000 0.000  326.000000 186.000000 = 512  |  0.433 0.567 | -2333.181 5 
708  2 0.113 0.131 0.071 0.000 0.000  326.000000 186.000000 = 512  |  0.433 0.567 | -2334.827 5 
709  2 0.113 0.131 0.070 0.000 0.000  326.000000 186.000000 = 512  |  0.433 0.567 | -2335.071 5 
710  2 0.113 0.131 0.069 0.000 0.000  326.000000 186.000000 = 512  |  0.433 0.567 | -2334.983 5 
711  2 0.113 0.131 0.069 0.000 0.000  326.000000 186.000000 = 512  |  0.433 0.567 | -2334.462 5 
712  0 0.113 0.131 0.069 0.000 0.000  326.000000 186.000000 = 512  |  0.433 0.567 | -2333.878 5 
713  1 0.113 0.131 0.069 0.000 0.000  326.000000 186.000000 = 512  |  0.437 0.563 | -2335.050 5 
714  2 0.113 0.131 0.068 0.000 0.000  326.000000 186.000000 = 512  |  0.437 0.563 | -2333.317 5 
715  0 0.112 0.131 0.068 0.000 0.000  326.000000 186.000000 = 512  |  0.437 0.563 | -2332.689 5 
716  1 0.112 0.130 0.068 0.000 0.000  326.000000 186.000000 = 512  |  0.437 0.563 | -2333.175 5 
717  1 0.112 0.130 0.068 0.000 0.000  326.000000 186.000000 = 512  |  0.433 0.567 | -2332.991 5 
718  2 0.112 0.130 0.067 0.000 0.000  326.000000 186.000000 = 512  |  0.433 0.567 | -2333.109 5 
719  1 0.112 0.130 0.067 0.000 0.000  326.000000 186.000000 = 512  |  0.433 0.567 | -2334.997 5 
720  2 0.112 0.130 0.066 0.000 0.000  326.000000 186.000000 = 512  |  0.433 0.567 | -2335.300 5 
721  2 0.112 0.130 0.066 0.000 0.000  326.000000 186.000000 = 512  |  0.433 0.567 | -2335.193 5 
722  0 0.112 0.130 0.066 0.000 0.000  326.000000 186.000000 = 512  |  0.433 0.567 | -2333.324 5 
723  1 0.112 0.129 0.066 0.000 0.000  326.000000 186.000000 = 512  |  0.433 0.567 | -2334.488 5 
724  0 0.111 0.129 0.066 0.000 0.000  326.000000 186.000000 = 512  |  0.433 0.567 | -2333.947 5 
725  1 0.111 0.129 0.066 0.000 0.000  326.000000 186.000000 = 512  |  0.437 0.563 | -2335.016 5 
726  1 0.111 0.129 0.066 0.000 0.000  326.000000 186.000000 = 512  |  0.433 0.567 | -2333.998 5 
727  2 0.111 0.129 0.065 0.000 0.000  326.000000 186.000000 = 512  |  0.433 0.567 | -2335.219 5 
728  0 0.111 0.129 0.065 0.000 0.000  326.000000 186.000000 = 512  |  0.433 0.567 | -2334.446 5 
729  2 0.111 0.129 0.064 0.000 0.000  326.000000 186.000000 = 512  |  0.433 0.567 | -2334.880 5 
730  0 0.113 0.129 0.064 0.000 0.000  326.000000 186.000000 = 512  |  0.433 0.567 | -2335.478 5 
731  0 0.112 0.129 0.064 0.000 0.000  326.000000 186.000000 = 512  |  0.433 0.567 | -2334.416 5 
732  1 0.112 0.131 0.064 0.000 0.000  326.000000 186.000000 = 512  |  0.437 0.563 | -2334.634 5 
733  0 0.112 0.131 0.064 0.000 0.000  326.000000 186.000000 = 512  |  0.437 0.563 | -2336.006 5 
734  2 0.112 0.131 0.063 0.000 0.000  326.000000 186.000000 = 512  |  0.437 0.563 | -2333.801 5 
735  2 0.112 0.131 0.063 0.000 0.000  326.000000 186.000000 = 512  |  0.437 0.563 | -2335.207 5 
736  0 0.111 0.131 0.063 0.000 0.000  326.000000 186.000000 = 512  |  0.437 0.563 | -2334.384 5 
737  2 0.111 0.131 0.062 0.000 0.000  326.000000 186.000000 = 512  |  0.437 0.563 | -2334.948 5 
738  1 0.111 0.133 0.062 0.000 0.000  326.000000 186.000000 = 512  |  0.439 0.561 | -2335.226 5 
739  0 0.111 0.133 0.062 0.000 0.000  326.000000 186.000000 = 512  |  0.439 0.561 | -2334.474 5 
740  1 0.111 0.133 0.062 0.000 0.000  326.000000 186.000000 = 512  |  0.437 0.563 | -2334.817 5 
741  0 0.110 0.133 0.062 0.000 0.000  326.000000 186.000000 = 512  |  0.437 0.563 | -2336.089 5 
742  1 0.110 0.132 0.062 0.000 0.000  326.000000 186.000000 = 512  |  0.441 0.559 | -2335.752 5 
743  1 0.110 0.132 0.062 0.000 0.000  326.000000 186.000000 = 512  |  0.437 0.563 | -2335.234 5 
744  2 0.110 0.132 0.072 0.000 0.000  326.000000 186.000000 = 512  |  0.448 0.552 | -2335.813 5 
745  1 0.110 0.132 0.072 0.000 0.000  327.000000 185.000000 = 512  |  0.446 0.554 | -2334.847 5 
746  0 0.110 0.132 0.072 0.000 0.000  327.000000 185.000000 = 512  |  0.446 0.554 | -2335.014 5 
747  2 0.110 0.132 0.071 0.000 0.000  327.000000 185.000000 = 512  |  0.446 0.554 | -2335.583 5 
748  0 0.109 0.132 0.071 0.000 0.000  327.000000 185.000000 = 512  |  0.446 0.554 | -2336.888 5 
749  2 0.109 0.132 0.070 0.000 0.000  327.000000 185.000000 = 512  |  0.446 0.554 | -2336.080 5 
750  2 0.109 0.132 0.070 0.000 0.000  327.000000 185.000000 = 512  |  0.446 0.554 | -2335.995 5 
751  1 0.109 0.131 0.070 0.000 0.000  327.000000 185.000000 = 512  |  0.446 0.554 | -2334.387 4 
752  2 0.109 0.131 0.069 0.000 0.000  327.000000 185.000000 = 512  |  0.446 0.554 | -2336.305 4 
753  1 0.109 0.131 0.069 0.000 0.000  327.000000 185.000000 = 512  |  0.449 0.551 | -2336.065 4 
754  2 0.109 0.131 0.068 0.000 0.000  327.000000 185.000000 = 512  |  0.449 0.551 | -2335.085 4 
755  2 0.109 0.131 0.068 0.000 0.000  327.000000 185.000000 = 512  |  0.449 0.551 | -2333.367 4 
756  2 0.109 0.131 0.067 0.000 0.000  327.000000 185.000000 = 512  |  0.449 0.551 | -2334.828 4 
757  2 0.109 0.131 0.076 0.000 0.000  327.000000 185.000000 = 512  |  0.455 0.545 | -2335.620 4 
758  1 0.109 0.131 0.076 0.000 0.000  328.000000 184.000000 = 512  |  0.453 0.547 | -2334.165 4 
759  1 0.109 0.130 0.076 0.000 0.000  328.000000 184.000000 = 512  |  0.453 0.547 | -2334.910 4 
760  2 0.109 0.130 0.075 0.000 0.000  328.000000 184.000000 = 512  |  0.453 0.547 | -2335.846 4 
761  1 0.109 0.130 0.075 0.000 0.000  328.000000 184.000000 = 512  |  0.453 0.547 | -2334.750 4 
762  0 0.109 0.130 0.075 0.000 0.000  328.000000 184.000000 = 512  |  0.453 0.547 | -2335.404 4 
763  0 0.108 0.130 0.075 0.000 0.000  328.000000 184.000000 = 512  |  0.453 0.547 | -2335.288 4 
764  1 0.108 0.130 0.075 0.000 0.000  328.000000 184.000000 = 512  |  0.456 0.544 | -2334.131 4 
765  2 0.108 0.130 0.074 0.000 0.000  328.000000 184.000000 = 512  |  0.456 0.544 | -2334.194 4 
766  0 0.110 0.130 0.074 0.000 0.000  328.000000 184.000000 = 512  |  0.456 0.544 | -2333.590 4 
767  0 0.109 0.130 0.074 0.000 0.000  328.000000 184.000000 = 512  |  0.456 0.544 | -2333.980 4 
768  0 0.109 0.130 0.074 0.000 0.000  328.000000 184.000000 = 512  |  0.456 0.544 | -2333.778 4 
769  2 0.109 0.130 0.074 0.000 0.000  328.000000 184.000000 = 512  |  0.456 0.544 | -2334.215 4 
770  1 0.109 0.130 0.074 0.000 0.000  328.000000 184.000000 = 512  |  0.456 0.544 | -2334.166 4 
771  1 0.109 0.129 0.074 0.000 0.000  328.000000 184.000000 = 512  |  0.453 0.547 | -2334.131 4 
772  2 0.109 0.129 0.073 0.000 0.000  328.000000 184.000000 = 512  |  0.453 0.547 | -2335.186 4 
773  1 0.109 0.129 0.073 0.000 0.000  328.000000 184.000000 = 512  |  0.453 0.547 | -2334.964 4 
774  2 0.109 0.129 0.072 0.000 0.000  328.000000 184.000000 = 512  |  0.453 0.547 | -2334.136 4 
775  1 0.109 0.129 0.072 0.000 0.000  328.000000 184.000000 = 512  |  0.456 0.544 | -2335.490 4 
776  0 0.109 0.129 0.072 0.000 0.000  328.000000 184.000000 = 512  |  0.456 0.544 | -2333.460 4 
777  2 0.109 0.129 0.072 0.000 0.000  328.000000 184.000000 = 512  |  0.456 0.544 | -2332.906 4 
778  2 0.109 0.129 0.071 0.000 0.000  328.000000 184.000000 = 512  |  0.456 0.544 | -2333.639 4 
779  0 0.108 0.129 0.071 0.000 0.000  328.000000 184.000000 = 512  |  0.456 0.544 | -2335.123 4 
780  0 0.108 0.129 0.071 0.000 0.000  328.000000 184.000000 = 512  |  0.456 0.544 | -2333.894 4 
781  2 0.108 0.129 0.070 0.000 0.000  328.000000 184.000000 = 512  |  0.456 0.544 | -2332.691 4 
782  0 0.107 0.129 0.070 0.000 0.000  328.000000 184.000000 = 512  |  0.456 0.544 | -2334.837 4 
783  2 0.107 0.129 0.070 0.000 0.000  328.000000 184.000000 = 512  |  0.456 0.544 | -2334.614 4 
784  1 0.107 0.128 0.070 0.000 0.000  328.000000 184.000000 = 512  |  0.456 0.544 | -2333.736 4 
785  1 0.107 0.128 0.070 0.000 0.000  328.000000 184.000000 = 512  |  0.453 0.547 | -2333.436 4 
786  2 0.107 0.128 0.069 0.000 0.000  328.000000 184.000000 = 512  |  0.453 0.547 | -2335.713 4 
787  2 0.107 0.128 0.069 0.000 0.000  328.000000 184.000000 = 512  |  0.453 0.547 | -2334.267 4 
788  0 0.107 0.128 0.069 0.000 0.000  328.000000 184.000000 = 512  |  0.453 0.547 | -2335.380 4 
789  2 0.107 0.128 0.068 0.000 0.000  328.000000 184.000000 = 512  |  0.453 0.547 | -2335.705 4 
790  2 0.107 0.128 0.068 0.000 0.000  328.000000 184.000000 = 512  |  0.453 0.547 | -2336.629 4 
791  2 0.107 0.128 0.067 0.000 0.000  328.000000 184.000000 = 512  |  0.453 0.547 | -2334.622 4 
792  0 0.106 0.128 0.067 0.000 0.000  328.000000 184.000000 = 512  |  0.453 0.547 | -2334.903 4 
793  2 0.106 0.128 0.066 0.000 0.000  328.000000 184.000000 = 512  |  0.453 0.547 | -2335.369 4 
794  1 0.106 0.128 0.066 0.000 0.000  328.000000 184.000000 = 512  |  0.453 0.547 | -2334.262 4 
795  1 0.106 0.127 0.066 0.000 0.000  328.000000 184.000000 = 512  |  0.453 0.547 | -2335.999 4 
796  2 0.106 0.127 0.066 0.000 0.000  328.000000 184.000000 = 512  |  0.453 0.547 | -2333.947 4 
797  1 0.106 0.127 0.066 0.000 0.000  328.000000 184.000000 = 512  |  0.453 0.547 | -2335.613 4 
798  1 0.106 0.127 0.066 0.000 0.000  328.000000 184.000000 = 512  |  0.453 0.547 | -2335.798 4 
799  0 0.108 0.127 0.066 0.000 0.000  328.000000 184.000000 = 512  |  0.453 0.547 | -2335.169 4 
800  2 0.108 0.127 0.065 0.000 0.000  328.000000 184.000000 = 512  |  0.453 0.547 | -2334.545 4 
801  0 0.108 0.127 0.065 0.000 0.000  328.000000 184.000000 = 512  |  0.453 0.547 | -2335.354 4 
802  2 0.108 0.127 0.065 0.000 0.000  328.000000 184.000000 = 512  |  0.453 0.547 | -2334.511 4 
803  1 0.108 0.127 0.065 0.000 0.000  328.000000 184.000000 = 512  |  0.456 0.544 | -2336.875 4 
804  2 0.108 0.127 0.064 0.000 0.000  328.000000 184.000000 = 512  |  0.456 0.544 | -2334.117 4 
805  0 0.107 0.127 0.064 0.000 0.000  328.000000 184.000000 = 512  |  0.456 0.544 | -2333.550 4 
806  1 0.107 0.126 0.064 0.000 0.000  328.000000 184.000000 = 512  |  0.453 0.547 | -2335.204 4 
807  2 0.107 0.126 0.064 0.000 0.000  328.000000 184.000000 = 512  |  0.453 0.547 | -2336.612 4 
808  2 0.107 0.126 0.063 0.000 0.000  328.000000 184.000000 = 512  |  0.453 0.547 | -2334.768 4 
809  1 0.107 0.126 0.063 0.000 0.000  328.000000 184.000000 = 512  |  0.453 0.547 | -2335.220 4 
810  1 0.107 0.126 0.063 0.000 0.000  328.000000 184.000000 = 512  |  0.453 0.547 | -2336.025 4 
811  0 0.107 0.126 0.063 0.000 0.000  328.000000 184.000000 = 512  |  0.453 0.547 | -2335.296 4 
812  1 0.107 0.125 0.063 0.000 0.000  328.000000 184.000000 = 512  |  0.456 0.544 | -2336.281 4 
813  0 0.106 0.125 0.063 0.000 0.000  328.000000 184.000000 = 512  |  0.456 0.544 | -2334.008 4 
814  1 0.106 0.125 0.063 0.000 0.000  328.000000 184.000000 = 512  |  0.453 0.547 | -2335.048 4 
815  0 0.106 0.125 0.063 0.000 0.000  328.000000 184.000000 = 512  |  0.453 0.547 | -2335.519 4 
816  0 0.105 0.125 0.063 0.000 0.000  328.000000 184.000000 = 512  |  0.453 0.547 | -2336.071 4 
817  1 0.105 0.127 0.063 0.000 0.000  328.000000 184.000000 = 512  |  0.456 0.544 | -2335.986 4 
818  1 0.105 0.127 0.063 0.000 0.000  328.000000 184.000000 = 512  |  0.455 0.545 | -2335.140 4 
819  2 0.105 0.127 0.071 0.000 0.000  328.000000 184.000000 = 512  |  0.449 0.551 | -2335.885 4 
820  0 0.105 0.127 0.071 0.000 0.000  327.000000 185.000000 = 512  |  0.449 0.551 | -2334.418 4 
821  2 0.105 0.127 0.070 0.000 0.000  327.000000 185.000000 = 512  |  0.449 0.551 | -2334.287 4 
822  0 0.105 0.127 0.070 0.000 0.000  327.000000 185.000000 = 512  |  0.449 0.551 | -2336.360 4 
823  0 0.104 0.127 0.070 0.000 0.000  327.000000 185.000000 = 512  |  0.449 0.551 | -2335.177 4 
824  1 0.104 0.129 0.070 0.000 0.000  327.000000 185.000000 = 512  |  0.451 0.549 | -2334.826 4 
825  0 0.104 0.129 0.070 0.000 0.000  327.000000 185.000000 = 512  |  0.451 0.549 | -2335.067 4 
[...]
3809  2 0.038 0.077 0.057 0.000 0.000  289.000000 223.000000 = 512  |  0.398 0.602 | -2351.330 1 
3810  1 0.038 0.077 0.057 0.000 0.000  289.000000 223.000000 = 512  |  0.396 0.604 | -2351.660 1 
3811  0 0.038 0.077 0.057 0.000 0.000  289.000000 223.000000 = 512  |  0.396 0.604 | -2352.386 1 
3812  2 0.038 0.077 0.057 0.000 0.000  289.000000 223.000000 = 512  |  0.396 0.604 | -2353.650 1 
3813  2 0.038 0.077 0.057 0.000 0.000  289.000000 223.000000 = 512  |  0.396 0.604 | -2352.699 1 
3814  1 0.038 0.077 0.057 0.000 0.000  289.000000 223.000000 = 512  |  0.396 0.604 | -2353.140 1 
3815  0 0.038 0.077 0.057 0.000 0.000  289.000000 223.000000 = 512  |  0.396 0.604 | -2351.909 1 
3816  2 0.038 0.077 0.057 0.000 0.000  289.000000 223.000000 = 512  |  0.396 0.604 | -2352.729 1 
3817  1 0.038 0.076 0.057 0.000 0.000  289.000000 223.000000 = 512  |  0.398 0.602 | -2351.812 1 
3818  1 0.038 0.076 0.057 0.000 0.000  289.000000 223.000000 = 512  |  0.398 0.602 | -2351.867 1 
3819  2 0.038 0.076 0.057 0.000 0.000  289.000000 223.000000 = 512  |  0.398 0.602 | -2350.115 1 
3820  1 0.038 0.077 0.057 0.000 0.000  289.000000 223.000000 = 512  |  0.398 0.602 | -2350.784 1 
3821  1 0.038 0.077 0.057 0.000 0.000  289.000000 223.000000 = 512  |  0.399 0.601 | -2352.051 1 
3822  2 0.038 0.077 0.058 0.000 0.000  289.000000 223.000000 = 512  |  0.400 0.600 | -2349.895 1 
3823  1 0.038 0.077 0.058 0.000 0.000  290.000000 222.000000 = 512  |  0.399 0.601 | -2351.872 1 
3824  2 0.038 0.077 0.058 0.000 0.000  290.000000 222.000000 = 512  |  0.399 0.601 | -2352.352 1 
3825  1 0.038 0.078 0.058 0.000 0.000  290.000000 222.000000 = 512  |  0.401 0.599 | -2351.338 1 
3826  0 0.038 0.078 0.058 0.000 0.000  290.000000 222.000000 = 512  |  0.401 0.599 | -2352.031 1 
3827  1 0.038 0.078 0.058 0.000 0.000  290.000000 222.000000 = 512  |  0.401 0.599 | -2351.601 1 
3828  2 0.038 0.078 0.058 0.000 0.000  290.000000 222.000000 = 512  |  0.401 0.599 | -2352.240 1 
3829  1 0.038 0.077 0.058 0.000 0.000  290.000000 222.000000 = 512  |  0.401 0.599 | -2351.322 1 
3830  2 0.038 0.077 0.058 0.000 0.000  290.000000 222.000000 = 512  |  0.401 0.599 | -2349.954 1 
3831  1 0.038 0.077 0.058 0.000 0.000  290.000000 222.000000 = 512  |  0.401 0.599 | -2350.883 1 
3832  0 0.038 0.077 0.058 0.000 0.000  290.000000 222.000000 = 512  |  0.401 0.599 | -2351.509 1 
3833  0 0.038 0.077 0.058 0.000 0.000  290.000000 222.000000 = 512  |  0.401 0.599 | -2350.118 1 
3834  1 0.038 0.077 0.058 0.000 0.000  290.000000 222.000000 = 512  |  0.400 0.600 | -2351.982 1 
3835  2 0.038 0.077 0.058 0.000 0.000  290.000000 222.000000 = 512  |  0.400 0.600 | -2351.511 1 
3836  2 0.038 0.077 0.058 0.000 0.000  290.000000 222.000000 = 512  |  0.400 0.600 | -2350.421 1 
3837  2 0.038 0.077 0.058 0.000 0.000  290.000000 222.000000 = 512  |  0.400 0.600 | -2351.433 1 
3838  0 0.037 0.077 0.058 0.000 0.000  290.000000 222.000000 = 512  |  0.400 0.600 | -2352.601 1 
3839  2 0.037 0.077 0.058 0.000 0.000  290.000000 222.000000 = 512  |  0.400 0.600 | -2351.536 1 
3840  0 0.037 0.077 0.058 0.000 0.000  290.000000 222.000000 = 512  |  0.400 0.600 | -2352.141 1 
3841  1 0.037 0.077 0.058 0.000 0.000  290.000000 222.000000 = 512  |  0.400 0.600 | -2351.827 1 
3842  0 0.037 0.077 0.058 0.000 0.000  290.000000 222.000000 = 512  |  0.400 0.600 | -2351.402 1 
3843  0 0.037 0.077 0.058 0.000 0.000  290.000000 222.000000 = 512  |  0.400 0.600 | -2352.182 1 
3844  0 0.037 0.077 0.058 0.000 0.000  290.000000 222.000000 = 512  |  0.400 0.600 | -2352.821 1 
3845  1 0.037 0.077 0.058 0.000 0.000  290.000000 222.000000 = 512  |  0.400 0.600 | -2352.054 1 
3846  2 0.037 0.077 0.058 0.000 0.000  290.000000 222.000000 = 512  |  0.400 0.600 | -2350.859 1 
3847  1 0.037 0.077 0.058 0.000 0.000  290.000000 222.000000 = 512  |  0.400 0.600 | -2352.488 1 
3848  1 0.037 0.077 0.058 0.000 0.000  290.000000 222.000000 = 512  |  0.400 0.600 | -2351.398 1 
3849  2 0.037 0.077 0.058 0.000 0.000  290.000000 222.000000 = 512  |  0.400 0.600 | -2353.431 1 
3850  1 0.037 0.077 0.058 0.000 0.000  290.000000 222.000000 = 512  |  0.400 0.600 | -2352.759 1 
3851  1 0.037 0.077 0.058 0.000 0.000  290.000000 222.000000 = 512  |  0.400 0.600 | -2352.939 1 
3852  1 0.037 0.077 0.058 0.000 0.000  290.000000 222.000000 = 512  |  0.400 0.600 | -2351.867 1 
3853  0 0.037 0.077 0.058 0.000 0.000  290.000000 222.000000 = 512  |  0.400 0.600 | -2352.480 1 
3854  1 0.037 0.077 0.058 0.000 0.000  290.000000 222.000000 = 512  |  0.400 0.600 | -2352.632 1 
3855  2 0.037 0.077 0.058 0.000 0.000  290.000000 222.000000 = 512  |  0.400 0.600 | -2353.210 1 
3856  0 0.037 0.077 0.058 0.000 0.000  290.000000 222.000000 = 512  |  0.400 0.600 | -2352.848 1 
3857  2 0.037 0.077 0.058 0.000 0.000  290.000000 222.000000 = 512  |  0.400 0.600 | -2354.350 1 
3858  1 0.037 0.077 0.058 0.000 0.000  290.000000 222.000000 = 512  |  0.400 0.600 | -2352.667 1 
3859  2 0.037 0.077 0.057 0.000 0.000  290.000000 222.000000 = 512  |  0.400 0.600 | -2351.526 1 
3860  2 0.037 0.077 0.057 0.000 0.000  290.000000 222.000000 = 512  |  0.400 0.600 | -2354.695 1 
3861  0 0.037 0.077 0.057 0.000 0.000  290.000000 222.000000 = 512  |  0.400 0.600 | -2353.810 1 
3862  0 0.037 0.077 0.057 0.000 0.000  290.000000 222.000000 = 512  |  0.400 0.600 | -2352.672 1 
3863  1 0.037 0.077 0.057 0.000 0.000  290.000000 222.000000 = 512  |  0.400 0.600 | -2354.471 1 
3864  0 0.037 0.077 0.057 0.000 0.000  290.000000 222.000000 = 512  |  0.400 0.600 | -2353.214 1 
3865  2 0.037 0.077 0.057 0.000 0.000  290.000000 222.000000 = 512  |  0.400 0.600 | -2353.412 1 
3866  2 0.037 0.077 0.057 0.000 0.000  290.000000 222.000000 = 512  |  0.400 0.600 | -2353.219 1 
3867  2 0.037 0.077 0.057 0.000 0.000  290.000000 222.000000 = 512  |  0.400 0.600 | -2354.660 1 
3868  0 0.037 0.077 0.057 0.000 0.000  290.000000 222.000000 = 512  |  0.400 0.600 | -2353.810 1 
3869  0 0.037 0.077 0.057 0.000 0.000  290.000000 222.000000 = 512  |  0.400 0.600 | -2352.360 1 
3870  0 0.037 0.077 0.057 0.000 0.000  290.000000 222.000000 = 512  |  0.400 0.600 | -2353.668 1 
3871  2 0.037 0.077 0.057 0.000 0.000  290.000000 222.000000 = 512  |  0.400 0.600 | -2354.017 1 
3872  0 0.037 0.077 0.057 0.000 0.000  290.000000 222.000000 = 512  |  0.400 0.600 | -2352.994 1 
3873  0 0.037 0.077 0.057 0.000 0.000  290.000000 222.000000 = 512  |  0.400 0.600 | -2353.134 1 
3874  0 0.037 0.077 0.057 0.000 0.000  290.000000 222.000000 = 512  |  0.400 0.600 | -2353.530 1 
3875  2 0.037 0.077 0.057 0.000 0.000  290.000000 222.000000 = 512  |  0.400 0.600 | -2352.692 1 
3876  1 0.037 0.077 0.057 0.000 0.000  290.000000 222.000000 = 512  |  0.400 0.600 | -2353.737 1 
3877  2 0.037 0.077 0.057 0.000 0.000  290.000000 222.000000 = 512  |  0.400 0.600 | -2353.128 1 
3878  0 0.037 0.077 0.057 0.000 0.000  290.000000 222.000000 = 512  |  0.400 0.600 | -2352.584 1 
3879  0 0.037 0.077 0.057 0.000 0.000  290.000000 222.000000 = 512  |  0.400 0.600 | -2354.185 1 
3880  0 0.037 0.077 0.057 0.000 0.000  290.000000 222.000000 = 512  |  0.400 0.600 | -2352.599 1 
3881  0 0.037 0.077 0.057 0.000 0.000  290.000000 222.000000 = 512  |  0.400 0.600 | -2351.328 1 
3882  1 0.037 0.077 0.057 0.000 0.000  290.000000 222.000000 = 512  |  0.400 0.600 | -2353.676 1 
3883  0 0.038 0.077 0.057 0.000 0.000  290.000000 222.000000 = 512  |  0.400 0.600 | -2351.920 1 
3884  0 0.038 0.077 0.057 0.000 0.000  290.000000 222.000000 = 512  |  0.400 0.600 | -2352.361 1 
3885  0 0.038 0.077 0.057 0.000 0.000  290.000000 222.000000 = 512  |  0.400 0.600 | -2352.723 1 
3886  1 0.038 0.077 0.057 0.000 0.000  290.000000 222.000000 = 512  |  0.400 0.600 | -2351.579 1 
3887  1 0.038 0.077 0.057 0.000 0.000  290.000000 222.000000 = 512  |  0.400 0.600 | -2352.592 1 
3888  2 0.038 0.077 0.057 0.000 0.000  290.000000 222.000000 = 512  |  0.400 0.600 | -2352.229 1 
3889  2 0.038 0.077 0.057 0.000 0.000  290.000000 222.000000 = 512  |  0.400 0.600 | -2352.183 1 
3890  0 0.038 0.077 0.057 0.000 0.000  290.000000 222.000000 = 512  |  0.400 0.600 | -2352.692 1 
3891  1 0.038 0.077 0.057 0.000 0.000  290.000000 222.000000 = 512  |  0.400 0.600 | -2351.366 1 
3892  0 0.038 0.077 0.057 0.000 0.000  290.000000 222.000000 = 512  |  0.400 0.600 | -2350.856 1 
3893  2 0.038 0.077 0.057 0.000 0.000  290.000000 222.000000 = 512  |  0.400 0.600 | -2352.010 1 
3894  0 0.038 0.077 0.057 0.000 0.000  290.000000 222.000000 = 512  |  0.400 0.600 | -2352.756 1 
3895  1 0.038 0.077 0.057 0.000 0.000  290.000000 222.000000 = 512  |  0.400 0.600 | -2351.707 1 
3896  1 0.038 0.076 0.057 0.000 0.000  290.000000 222.000000 = 512  |  0.400 0.600 | -2352.033 1 
3897  0 0.038 0.076 0.057 0.000 0.000  290.000000 222.000000 = 512  |  0.400 0.600 | -2350.447 1 
3898  1 0.038 0.076 0.057 0.000 0.000  290.000000 222.000000 = 512  |  0.400 0.600 | -2352.389 1 
3899  2 0.038 0.076 0.057 0.000 0.000  290.000000 222.000000 = 512  |  0.400 0.600 | -2351.387 1 
3900  1 0.038 0.076 0.057 0.000 0.000  290.000000 222.000000 = 512  |  0.400 0.600 | -2351.714 1 
3901  2 0.038 0.076 0.057 0.000 0.000  290.000000 222.000000 = 512  |  0.400 0.600 | -2351.972 1 
3902  0 0.037 0.076 0.057 0.000 0.000  290.000000 222.000000 = 512  |  0.400 0.600 | -2351.946 1 
3903  1 0.037 0.076 0.057 0.000 0.000  290.000000 222.000000 = 512  |  0.400 0.600 | -2350.281 1 
3904  2 0.037 0.076 0.057 0.000 0.000  290.000000 222.000000 = 512  |  0.400 0.600 | -2352.695 1 
3905  2 0.037 0.076 0.057 0.000 0.000  290.000000 222.000000 = 512  |  0.400 0.600 | -2352.097 1 
3906  2 0.037 0.076 0.057 0.000 0.000  290.000000 222.000000 = 512  |  0.400 0.600 | -2352.704 1 
3907  0 0.037 0.076 0.057 0.000 0.000  290.000000 222.000000 = 512  |  0.400 0.600 | -2352.515 1 
3908  0 0.037 0.076 0.057 0.000 0.000  290.000000 222.000000 = 512  |  0.400 0.600 | -2351.527 1 
3909  0 0.037 0.076 0.057 0.000 0.000  290.000000 222.000000 = 512  |  0.400 0.600 | -2352.185 1 
3910  0 0.037 0.076 0.057 0.000 0.000  290.000000 222.000000 = 512  |  0.400 0.600 | -2352.601 1 
3911  1 0.037 0.076 0.057 0.000 0.000  290.000000 222.000000 = 512  |  0.400 0.600 | -2352.520 1 
3912  1 0.037 0.076 0.057 0.000 0.000  290.000000 222.000000 = 512  |  0.400 0.600 | -2352.737 1 
3913  2 0.037 0.076 0.057 0.000 0.000  290.000000 222.000000 = 512  |  0.400 0.600 | -2353.637 1 
3914  0 0.037 0.076 0.057 0.000 0.000  290.000000 222.000000 = 512  |  0.400 0.600 | -2351.768 1 
3915  0 0.037 0.076 0.057 0.000 0.000  290.000000 222.000000 = 512  |  0.400 0.600 | -2353.525 1 
3916  2 0.037 0.076 0.057 0.000 0.000  290.000000 222.000000 = 512  |  0.400 0.600 | -2352.608 1 
3917  0 0.037 0.076 0.057 0.000 0.000  290.000000 222.000000 = 512  |  0.400 0.600 | -2353.461 1 
3918  2 0.037 0.076 0.057 0.000 0.000  290.000000 222.000000 = 512  |  0.400 0.600 | -2351.687 1 
3919  0 0.037 0.076 0.057 0.000 0.000  290.000000 222.000000 = 512  |  0.400 0.600 | -2353.354 1 
3920  2 0.037 0.076 0.057 0.000 0.000  290.000000 222.000000 = 512  |  0.400 0.600 | -2353.407 1 
3921  1 0.037 0.076 0.057 0.000 0.000  290.000000 222.000000 = 512  |  0.400 0.600 | -2354.242 1 
3922  0 0.037 0.076 0.057 0.000 0.000  290.000000 222.000000 = 512  |  0.400 0.600 | -2352.210 1 
3923  1 0.037 0.076 0.057 0.000 0.000  290.000000 222.000000 = 512  |  0.400 0.600 | -2353.704 1 
3924  0 0.037 0.076 0.057 0.000 0.000  290.000000 222.000000 = 512  |  0.400 0.600 | -2353.811 1 
3925  2 0.037 0.076 0.056 0.000 0.000  290.000000 222.000000 = 512  |  0.400 0.600 | -2352.692 1 
3926  0 0.037 0.076 0.056 0.000 0.000  290.000000 222.000000 = 512  |  0.400 0.600 | -2353.364 1 
3927  1 0.037 0.076 0.056 0.000 0.000  290.000000 222.000000 = 512  |  0.400 0.600 | -2353.698 1 
3928  1 0.037 0.076 0.056 0.000 0.000  290.000000 222.000000 = 512  |  0.400 0.600 | -2353.528 1 
3929  2 0.037 0.076 0.056 0.000 0.000  290.000000 222.000000 = 512  |  0.400 0.600 | -2352.881 1 
3930  2 0.037 0.076 0.056 0.000 0.000  290.000000 222.000000 = 512  |  0.400 0.600 | -2352.522 1 
3931  0 0.037 0.076 0.056 0.000 0.000  290.000000 222.000000 = 512  |  0.400 0.600 | -2355.085 1 
3932  1 0.037 0.076 0.056 0.000 0.000  290.000000 222.000000 = 512  |  0.400 0.600 | -2353.174 1 
3933  1 0.037 0.076 0.056 0.000 0.000  290.000000 222.000000 = 512  |  0.400 0.600 | -2354.456 1 
3934  0 0.037 0.076 0.056 0.000 0.000  290.000000 222.000000 = 512  |  0.400 0.600 | -2352.524 1 
3935  2 0.037 0.076 0.056 0.000 0.000  290.000000 222.000000 = 512  |  0.400 0.600 | -2352.813 1 
3936  1 0.037 0.076 0.056 0.000 0.000  290.000000 222.000000 = 512  |  0.400 0.600 | -2352.813 1 
3937  0 0.037 0.076 0.056 0.000 0.000  290.000000 222.000000 = 512  |  0.400 0.600 | -2353.898 1 
3938  1 0.037 0.076 0.056 0.000 0.000  290.000000 222.000000 = 512  |  0.400 0.600 | -2353.941 1 
3939  0 0.037 0.076 0.056 0.000 0.000  290.000000 222.000000 = 512  |  0.400 0.600 | -2352.819 1 
3940  2 0.037 0.076 0.056 0.000 0.000  290.000000 222.000000 = 512  |  0.400 0.600 | -2351.880 1 
3941  2 0.037 0.076 0.056 0.000 0.000  290.000000 222.000000 = 512  |  0.400 0.600 | -2352.984 1 
3942  0 0.037 0.076 0.056 0.000 0.000  290.000000 222.000000 = 512  |  0.400 0.600 | -2351.505 1 
3943  2 0.037 0.076 0.056 0.000 0.000  290.000000 222.000000 = 512  |  0.400 0.600 | -2353.545 1 
3944  2 0.037 0.076 0.056 0.000 0.000  290.000000 222.000000 = 512  |  0.400 0.600 | -2353.206 1 
3945  0 0.037 0.076 0.056 0.000 0.000  290.000000 222.000000 = 512  |  0.400 0.600 | -2351.349 1 
3946  0 0.037 0.076 0.056 0.000 0.000  290.000000 222.000000 = 512  |  0.400 0.600 | -2352.312 1 
3947  1 0.037 0.076 0.056 0.000 0.000  290.000000 222.000000 = 512  |  0.400 0.600 | -2351.841 1 
3948  2 0.037 0.076 0.056 0.000 0.000  290.000000 222.000000 = 512  |  0.400 0.600 | -2352.670 1 
3949  1 0.037 0.076 0.056 0.000 0.000  290.000000 222.000000 = 512  |  0.400 0.600 | -2350.906 1 
3950  1 0.037 0.076 0.056 0.000 0.000  290.000000 222.000000 = 512  |  0.400 0.600 | -2351.339 1 
3951  1 0.037 0.076 0.056 0.000 0.000  290.000000 222.000000 = 512  |  0.400 0.600 | -2351.527 1 
3952  2 0.037 0.076 0.056 0.000 0.000  290.000000 222.000000 = 512  |  0.400 0.600 | -2351.483 1 
3953  2 0.037 0.076 0.056 0.000 0.000  290.000000 222.000000 = 512  |  0.400 0.600 | -2351.550 1 
3954  1 0.037 0.076 0.056 0.000 0.000  290.000000 222.000000 = 512  |  0.400 0.600 | -2350.036 1 
3955  0 0.037 0.076 0.056 0.000 0.000  290.000000 222.000000 = 512  |  0.400 0.600 | -2350.875 1 
3956  0 0.037 0.076 0.056 0.000 0.000  290.000000 222.000000 = 512  |  0.400 0.600 | -2351.454 1 
3957  2 0.037 0.076 0.056 0.000 0.000  290.000000 222.000000 = 512  |  0.400 0.600 | -2350.588 1 
3958  2 0.037 0.076 0.056 0.000 0.000  290.000000 222.000000 = 512  |  0.400 0.600 | -2350.955 1 
3959  1 0.037 0.075 0.056 0.000 0.000  290.000000 222.000000 = 512  |  0.400 0.600 | -2350.111 1 
3960  1 0.037 0.075 0.056 0.000 0.000  290.000000 222.000000 = 512  |  0.400 0.600 | -2351.693 1 
3961  1 0.037 0.075 0.056 0.000 0.000  290.000000 222.000000 = 512  |  0.400 0.600 | -2350.509 1 
3962  1 0.037 0.075 0.056 0.000 0.000  290.000000 222.000000 = 512  |  0.400 0.600 | -2349.945 1 
3963  0 0.037 0.075 0.056 0.000 0.000  290.000000 222.000000 = 512  |  0.400 0.600 | -2350.878 1 
3964  2 0.037 0.075 0.056 0.000 0.000  290.000000 222.000000 = 512  |  0.400 0.600 | -2350.980 1 
3965  2 0.037 0.075 0.056 0.000 0.000  290.000000 222.000000 = 512  |  0.400 0.600 | -2351.221 1 
3966  1 0.037 0.075 0.056 0.000 0.000  290.000000 222.000000 = 512  |  0.400 0.600 | -2351.373 1 
3967  2 0.037 0.075 0.056 0.000 0.000  290.000000 222.000000 = 512  |  0.400 0.600 | -2350.617 1 
3968  2 0.037 0.075 0.056 0.000 0.000  290.000000 222.000000 = 512  |  0.400 0.600 | -2351.229 1 
3969  2 0.037 0.075 0.056 0.000 0.000  290.000000 222.000000 = 512  |  0.400 0.600 | -2350.215 1 
3970  2 0.037 0.075 0.056 0.000 0.000  290.000000 222.000000 = 512  |  0.400 0.600 | -2351.419 1 
3971  1 0.037 0.075 0.056 0.000 0.000  290.000000 222.000000 = 512  |  0.400 0.600 | -2351.765 1 
3972  1 0.037 0.075 0.056 0.000 0.000  290.000000 222.000000 = 512  |  0.400 0.600 | -2351.108 1 
3973  2 0.037 0.075 0.056 0.000 0.000  290.000000 222.000000 = 512  |  0.400 0.600 | -2350.903 1 
3974  1 0.037 0.075 0.056 0.000 0.000  290.000000 222.000000 = 512  |  0.400 0.600 | -2351.148 1 
3975  0 0.037 0.075 0.056 0.000 0.000  290.000000 222.000000 = 512  |  0.400 0.600 | -2350.989 1 
3976  2 0.037 0.075 0.056 0.000 0.000  290.000000 222.000000 = 512  |  0.399 0.601 | -2350.832 1 
3977  0 0.037 0.075 0.056 0.000 0.000  289.000000 223.000000 = 512  |  0.399 0.601 | -2352.051 1 
3978  0 0.037 0.075 0.056 0.000 0.000  289.000000 223.000000 = 512  |  0.399 0.601 | -2348.986 1 
3979  1 0.037 0.075 0.056 0.000 0.000  289.000000 223.000000 = 512  |  0.399 0.601 | -2351.446 1 
3980  1 0.037 0.075 0.056 0.000 0.000  289.000000 223.000000 = 512  |  0.398 0.602 | -2351.091 1 
3981  0 0.037 0.075 0.056 0.000 0.000  289.000000 223.000000 = 512  |  0.398 0.602 | -2350.317 1 
3982  2 0.037 0.075 0.056 0.000 0.000  289.000000 223.000000 = 512  |  0.398 0.602 | -2353.320 1 
3983  2 0.037 0.075 0.056 0.000 0.000  289.000000 223.000000 = 512  |  0.398 0.602 | -2352.447 1 
3984  1 0.037 0.075 0.056 0.000 0.000  289.000000 223.000000 = 512  |  0.398 0.602 | -2351.828 1 
3985  2 0.037 0.075 0.056 0.000 0.000  289.000000 223.000000 = 512  |  0.398 0.602 | -2354.131 1 
3986  1 0.037 0.075 0.056 0.000 0.000  289.000000 223.000000 = 512  |  0.398 0.602 | -2353.427 1 
3987  2 0.037 0.075 0.056 0.000 0.000  289.000000 223.000000 = 512  |  0.398 0.602 | -2351.545 1 
3988  2 0.037 0.075 0.056 0.000 0.000  289.000000 223.000000 = 512  |  0.398 0.602 | -2353.310 1 
3989  1 0.037 0.075 0.056 0.000 0.000  289.000000 223.000000 = 512  |  0.398 0.602 | -2353.210 1 
3990  2 0.037 0.075 0.056 0.000 0.000  289.000000 223.000000 = 512  |  0.398 0.602 | -2353.158 1 
3991  0 0.037 0.075 0.056 0.000 0.000  289.000000 223.000000 = 512  |  0.398 0.602 | -2353.939 1 
3992  0 0.037 0.075 0.056 0.000 0.000  289.000000 223.000000 = 512  |  0.398 0.602 | -2351.553 1 
3993  1 0.037 0.075 0.056 0.000 0.000  289.000000 223.000000 = 512  |  0.398 0.602 | -2353.618 1 
3994  1 0.037 0.075 0.056 0.000 0.000  289.000000 223.000000 = 512  |  0.398 0.602 | -2353.480 1 
3995  2 0.037 0.075 0.056 0.000 0.000  289.000000 223.000000 = 512  |  0.398 0.602 | -2353.821 1 
3996  0 0.037 0.075 0.056 0.000 0.000  289.000000 223.000000 = 512  |  0.398 0.602 | -2352.183 1 
3997  1 0.037 0.075 0.056 0.000 0.000  289.000000 223.000000 = 512  |  0.398 0.602 | -2352.738 1 
3998  2 0.037 0.075 0.056 0.000 0.000  289.000000 223.000000 = 512  |  0.398 0.602 | -2354.314 1 
3999  2 0.037 0.075 0.056 0.000 0.000  289.000000 223.000000 = 512  |  0.398 0.602 | -2353.207 1 
4000  0 0.037 0.075 0.056 0.000 0.000  289.000000 223.000000 = 512  |  0.398 0.602 | -2353.497 1 
4001  0 0.037 0.075 0.056 0.000 0.000  289.000000 223.000000 = 512  |  0.398 0.602 | -2353.125 1 
4002  1 0.037 0.075 0.056 0.000 0.000  289.000000 223.000000 = 512  |  0.398 0.602 | -2353.940 1 
4003  1 0.037 0.075 0.056 0.000 0.000  289.000000 223.000000 = 512  |  0.398 0.602 | -2354.161 1 
4004  2 0.037 0.075 0.056 0.000 0.000  289.000000 223.000000 = 512  |  0.398 0.602 | -2353.753 1 
4005  0 0.037 0.075 0.056 0.000 0.000  289.000000 223.000000 = 512  |  0.398 0.602 | -2353.308 1 
4006  0 0.037 0.075 0.056 0.000 0.000  289.000000 223.000000 = 512  |  0.398 0.602 | -2352.852 1 
4007  0 0.037 0.075 0.056 0.000 0.000  289.000000 223.000000 = 512  |  0.398 0.602 | -2353.407 1 
4008  0 0.037 0.075 0.056 0.000 0.000  289.000000 223.000000 = 512  |  0.398 0.602 | -2355.007 1 
4009  2 0.037 0.075 0.056 0.000 0.000  289.000000 223.000000 = 512  |  0.398 0.602 | -2352.701 1 
4010  0 0.037 0.075 0.056 0.000 0.000  289.000000 223.000000 = 512  |  0.398 0.602 | -2355.462 1 
4011  2 0.037 0.075 0.056 0.000 0.000  289.000000 223.000000 = 512  |  0.398 0.602 | -2352.432 1 
4012  0 0.037 0.075 0.056 0.000 0.000  289.000000 223.000000 = 512  |  0.398 0.602 | -2353.201 1 
