LAMMPS data file via write_data, version 22 Aug 2018, timestep = 0

108 atoms
4 atom types

0.0000000000000000e+00 8.6999999999999993e+00 xlo xhi
0.0000000000000000e+00 1.5068842025849200e+01 ylo yhi
0.0000000000000000e+00 1.4207040508142400e+01 zlo zhi

Masses

1 58.693
2 58.933
3 55.847
4 47.88

Atoms # atomic

1 4 2.1749999999999998e+00 4.1857894516247873e-01 3.5517601270356081e+00 0 0 0
2 4 5.0750000000000002e+00 4.1857894516247873e-01 3.5517601270356081e+00 0 0 0
3 4 7.9749999999999996e+00 4.1857894516247873e-01 3.5517601270356081e+00 0 0 0
4 4 7.2499999999999998e-01 1.2557368354874359e+00 1.1839200423452028e+00 0 0 0
5 4 2.1749999999999998e+00 3.7672105064623076e+00 1.1839200423452028e+00 0 0 0
6 4 2.1749999999999998e+00 5.4415262871122225e+00 3.5517601270356081e+00 0 0 0
7 4 7.2499999999999998e-01 2.9300526161373504e+00 3.5517601270356081e+00 0 0 0
8 4 3.6250000000000000e+00 1.2557368354874359e+00 1.1839200423452028e+00 0 0 0
9 4 5.0750000000000002e+00 3.7672105064623076e+00 1.1839200423452028e+00 0 0 0
10 4 5.0750000000000002e+00 5.4415262871122225e+00 3.5517601270356081e+00 0 0 0
11 4 3.6250000000000000e+00 2.9300526161373504e+00 3.5517601270356081e+00 0 0 0
12 4 6.5249999999999995e+00 1.2557368354874359e+00 1.1839200423452028e+00 0 0 0
13 4 7.9749999999999996e+00 3.7672105064623076e+00 1.1839200423452028e+00 0 0 0
14 4 7.9749999999999996e+00 5.4415262871122225e+00 3.5517601270356081e+00 0 0 0
15 4 6.5249999999999995e+00 2.9300526161373504e+00 3.5517601270356081e+00 0 0 0
16 4 7.2499999999999998e-01 6.2786841774371798e+00 1.1839200423452028e+00 0 0 0
17 4 2.1749999999999998e+00 8.7901578484120524e+00 1.1839200423452028e+00 0 0 0
18 4 2.1749999999999998e+00 1.0464473629061967e+01 3.5517601270356081e+00 0 0 0
19 4 7.2499999999999998e-01 7.9529999580870943e+00 3.5517601270356081e+00 0 0 0
20 4 3.6250000000000000e+00 6.2786841774371798e+00 1.1839200423452028e+00 0 0 0
21 4 5.0750000000000002e+00 8.7901578484120524e+00 1.1839200423452028e+00 0 0 0
22 4 5.0750000000000002e+00 1.0464473629061967e+01 3.5517601270356081e+00 0 0 0
23 4 3.6250000000000000e+00 7.9529999580870943e+00 3.5517601270356081e+00 0 0 0
24 4 6.5249999999999995e+00 6.2786841774371798e+00 1.1839200423452028e+00 0 0 0
25 4 7.9749999999999996e+00 8.7901578484120524e+00 1.1839200423452028e+00 0 0 0
26 4 7.9749999999999996e+00 1.0464473629061967e+01 3.5517601270356081e+00 0 0 0
27 4 6.5249999999999995e+00 7.9529999580870943e+00 3.5517601270356081e+00 0 0 0
28 4 7.2499999999999998e-01 1.1301631519386923e+01 1.1839200423452028e+00 0 0 0
29 4 2.1749999999999998e+00 1.3813105190361794e+01 1.1839200423452028e+00 0 0 0
30 4 7.2499999999999998e-01 1.2975947300036839e+01 3.5517601270356081e+00 0 0 0
31 4 3.6250000000000000e+00 1.1301631519386923e+01 1.1839200423452028e+00 0 0 0
32 4 5.0750000000000002e+00 1.3813105190361794e+01 1.1839200423452028e+00 0 0 0
33 4 3.6250000000000000e+00 1.2975947300036839e+01 3.5517601270356081e+00 0 0 0
34 4 6.5249999999999995e+00 1.1301631519386923e+01 1.1839200423452028e+00 0 0 0
35 4 7.9749999999999996e+00 1.3813105190361794e+01 1.1839200423452028e+00 0 0 0
36 4 6.5249999999999995e+00 1.2975947300036839e+01 3.5517601270356081e+00 0 0 0
37 4 2.1749999999999998e+00 4.1857894516247873e-01 8.2874402964164187e+00 0 0 0
38 4 5.0750000000000002e+00 4.1857894516247873e-01 8.2874402964164187e+00 0 0 0
39 4 7.9749999999999996e+00 4.1857894516247873e-01 8.2874402964164187e+00 0 0 0
40 4 7.2499999999999998e-01 1.2557368354874359e+00 5.9196002117260136e+00 0 0 0
41 4 2.1749999999999998e+00 3.7672105064623076e+00 5.9196002117260136e+00 0 0 0
42 4 2.1749999999999998e+00 5.4415262871122225e+00 8.2874402964164187e+00 0 0 0
43 4 7.2499999999999998e-01 2.9300526161373504e+00 8.2874402964164187e+00 0 0 0
44 4 3.6250000000000000e+00 1.2557368354874359e+00 5.9196002117260136e+00 0 0 0
45 4 5.0750000000000002e+00 3.7672105064623076e+00 5.9196002117260136e+00 0 0 0
46 4 5.0750000000000002e+00 5.4415262871122225e+00 8.2874402964164187e+00 0 0 0
47 4 3.6250000000000000e+00 2.9300526161373504e+00 8.2874402964164187e+00 0 0 0
48 4 6.5249999999999995e+00 1.2557368354874359e+00 5.9196002117260136e+00 0 0 0
49 4 7.9749999999999996e+00 3.7672105064623076e+00 5.9196002117260136e+00 0 0 0
50 4 7.9749999999999996e+00 5.4415262871122225e+00 8.2874402964164187e+00 0 0 0
51 4 6.5249999999999995e+00 2.9300526161373504e+00 8.2874402964164187e+00 0 0 0
52 4 7.2499999999999998e-01 6.2786841774371798e+00 5.9196002117260136e+00 0 0 0
53 4 2.1749999999999998e+00 8.7901578484120524e+00 5.9196002117260136e+00 0 0 0
54 4 2.1749999999999998e+00 1.0464473629061967e+01 8.2874402964164187e+00 0 0 0
55 4 7.2499999999999998e-01 7.9529999580870943e+00 8.2874402964164187e+00 0 0 0
56 4 3.6250000000000000e+00 6.2786841774371798e+00 5.9196002117260136e+00 0 0 0
57 4 5.0750000000000002e+00 8.7901578484120524e+00 5.9196002117260136e+00 0 0 0
58 4 5.0750000000000002e+00 1.0464473629061967e+01 8.2874402964164187e+00 0 0 0
59 4 3.6250000000000000e+00 7.9529999580870943e+00 8.2874402964164187e+00 0 0 0
60 4 6.5249999999999995e+00 6.2786841774371798e+00 5.9196002117260136e+00 0 0 0
61 4 7.9749999999999996e+00 8.7901578484120524e+00 5.9196002117260136e+00 0 0 0
62 4 7.9749999999999996e+00 1.0464473629061967e+01 8.2874402964164187e+00 0 0 0
63 4 6.5249999999999995e+00 7.9529999580870943e+00 8.2874402964164187e+00 0 0 0
64 4 7.2499999999999998e-01 1.1301631519386923e+01 5.9196002117260136e+00 0 0 0
65 4 2.1749999999999998e+00 1.3813105190361794e+01 5.9196002117260136e+00 0 0 0
66 4 7.2499999999999998e-01 1.2975947300036839e+01 8.2874402964164187e+00 0 0 0
67 4 3.6250000000000000e+00 1.1301631519386923e+01 5.9196002117260136e+00 0 0 0
68 4 5.0750000000000002e+00 1.3813105190361794e+01 5.9196002117260136e+00 0 0 0
69 4 3.6250000000000000e+00 1.2975947300036839e+01 8.2874402964164187e+00 0 0 0
70 4 6.5249999999999995e+00 1.1301631519386923e+01 5.9196002117260136e+00 0 0 0
71 4 7.9749999999999996e+00 1.3813105190361794e+01 5.9196002117260136e+00 0 0 0
72 4 6.5249999999999995e+00 1.2975947300036839e+01 8.2874402964164187e+00 0 0 0
73 4 2.1749999999999998e+00 4.1857894516247873e-01 1.3023120465797231e+01 0 0 0
74 4 5.0750000000000002e+00 4.1857894516247873e-01 1.3023120465797231e+01 0 0 0
75 4 7.9749999999999996e+00 4.1857894516247873e-01 1.3023120465797231e+01 0 0 0
76 4 7.2499999999999998e-01 1.2557368354874359e+00 1.0655280381106824e+01 0 0 0
77 4 2.1749999999999998e+00 3.7672105064623076e+00 1.0655280381106824e+01 0 0 0
78 4 2.1749999999999998e+00 5.4415262871122225e+00 1.3023120465797231e+01 0 0 0
79 4 7.2499999999999998e-01 2.9300526161373504e+00 1.3023120465797231e+01 0 0 0
80 4 3.6250000000000000e+00 1.2557368354874359e+00 1.0655280381106824e+01 0 0 0
81 4 5.0750000000000002e+00 3.7672105064623076e+00 1.0655280381106824e+01 0 0 0
82 4 5.0750000000000002e+00 5.4415262871122225e+00 1.3023120465797231e+01 0 0 0
83 4 3.6250000000000000e+00 2.9300526161373504e+00 1.3023120465797231e+01 0 0 0
84 4 6.5249999999999995e+00 1.2557368354874359e+00 1.0655280381106824e+01 0 0 0
85 4 7.9749999999999996e+00 3.7672105064623076e+00 1.0655280381106824e+01 0 0 0
86 4 7.9749999999999996e+00 5.4415262871122225e+00 1.3023120465797231e+01 0 0 0
87 4 6.5249999999999995e+00 2.9300526161373504e+00 1.3023120465797231e+01 0 0 0
88 4 7.2499999999999998e-01 6.2786841774371798e+00 1.0655280381106824e+01 0 0 0
89 4 2.1749999999999998e+00 8.7901578484120524e+00 1.0655280381106824e+01 0 0 0
90 4 2.1749999999999998e+00 1.0464473629061967e+01 1.3023120465797231e+01 0 0 0
91 4 7.2499999999999998e-01 7.9529999580870943e+00 1.3023120465797231e+01 0 0 0
92 4 3.6250000000000000e+00 6.2786841774371798e+00 1.0655280381106824e+01 0 0 0
93 4 5.0750000000000002e+00 8.7901578484120524e+00 1.0655280381106824e+01 0 0 0
94 4 5.0750000000000002e+00 1.0464473629061967e+01 1.3023120465797231e+01 0 0 0
95 4 3.6250000000000000e+00 7.9529999580870943e+00 1.3023120465797231e+01 0 0 0
96 4 6.5249999999999995e+00 6.2786841774371798e+00 1.0655280381106824e+01 0 0 0
97 4 7.9749999999999996e+00 8.7901578484120524e+00 1.0655280381106824e+01 0 0 0
98 4 7.9749999999999996e+00 1.0464473629061967e+01 1.3023120465797231e+01 0 0 0
99 4 6.5249999999999995e+00 7.9529999580870943e+00 1.3023120465797231e+01 0 0 0
100 4 7.2499999999999998e-01 1.1301631519386923e+01 1.0655280381106824e+01 0 0 0
101 4 2.1749999999999998e+00 1.3813105190361794e+01 1.0655280381106824e+01 0 0 0
102 4 7.2499999999999998e-01 1.2975947300036839e+01 1.3023120465797231e+01 0 0 0
103 4 3.6250000000000000e+00 1.1301631519386923e+01 1.0655280381106824e+01 0 0 0
104 4 5.0750000000000002e+00 1.3813105190361794e+01 1.0655280381106824e+01 0 0 0
105 4 3.6250000000000000e+00 1.2975947300036839e+01 1.3023120465797231e+01 0 0 0
106 4 6.5249999999999995e+00 1.1301631519386923e+01 1.0655280381106824e+01 0 0 0
107 4 7.9749999999999996e+00 1.3813105190361794e+01 1.0655280381106824e+01 0 0 0
108 4 6.5249999999999995e+00 1.2975947300036839e+01 1.3023120465797231e+01 0 0 0

Velocities

1 0.0000000000000000e+00 0.0000000000000000e+00 0.0000000000000000e+00
2 0.0000000000000000e+00 0.0000000000000000e+00 0.0000000000000000e+00
3 0.0000000000000000e+00 0.0000000000000000e+00 0.0000000000000000e+00
4 0.0000000000000000e+00 0.0000000000000000e+00 0.0000000000000000e+00
5 0.0000000000000000e+00 0.0000000000000000e+00 0.0000000000000000e+00
6 0.0000000000000000e+00 0.0000000000000000e+00 0.0000000000000000e+00
7 0.0000000000000000e+00 0.0000000000000000e+00 0.0000000000000000e+00
8 0.0000000000000000e+00 0.0000000000000000e+00 0.0000000000000000e+00
9 0.0000000000000000e+00 0.0000000000000000e+00 0.0000000000000000e+00
10 0.0000000000000000e+00 0.0000000000000000e+00 0.0000000000000000e+00
11 0.0000000000000000e+00 0.0000000000000000e+00 0.0000000000000000e+00
12 0.0000000000000000e+00 0.0000000000000000e+00 0.0000000000000000e+00
13 0.0000000000000000e+00 0.0000000000000000e+00 0.0000000000000000e+00
14 0.0000000000000000e+00 0.0000000000000000e+00 0.0000000000000000e+00
15 0.0000000000000000e+00 0.0000000000000000e+00 0.0000000000000000e+00
16 0.0000000000000000e+00 0.0000000000000000e+00 0.0000000000000000e+00
17 0.0000000000000000e+00 0.0000000000000000e+00 0.0000000000000000e+00
18 0.0000000000000000e+00 0.0000000000000000e+00 0.0000000000000000e+00
19 0.0000000000000000e+00 0.0000000000000000e+00 0.0000000000000000e+00
20 0.0000000000000000e+00 0.0000000000000000e+00 0.0000000000000000e+00
21 0.0000000000000000e+00 0.0000000000000000e+00 0.0000000000000000e+00
22 0.0000000000000000e+00 0.0000000000000000e+00 0.0000000000000000e+00
23 0.0000000000000000e+00 0.0000000000000000e+00 0.0000000000000000e+00
24 0.0000000000000000e+00 0.0000000000000000e+00 0.0000000000000000e+00
25 0.0000000000000000e+00 0.0000000000000000e+00 0.0000000000000000e+00
26 0.0000000000000000e+00 0.0000000000000000e+00 0.0000000000000000e+00
27 0.0000000000000000e+00 0.0000000000000000e+00 0.0000000000000000e+00
28 0.0000000000000000e+00 0.0000000000000000e+00 0.0000000000000000e+00
29 0.0000000000000000e+00 0.0000000000000000e+00 0.0000000000000000e+00
30 0.0000000000000000e+00 0.0000000000000000e+00 0.0000000000000000e+00
31 0.0000000000000000e+00 0.0000000000000000e+00 0.0000000000000000e+00
32 0.0000000000000000e+00 0.0000000000000000e+00 0.0000000000000000e+00
33 0.0000000000000000e+00 0.0000000000000000e+00 0.0000000000000000e+00
34 0.0000000000000000e+00 0.0000000000000000e+00 0.0000000000000000e+00
35 0.0000000000000000e+00 0.0000000000000000e+00 0.0000000000000000e+00
36 0.0000000000000000e+00 0.0000000000000000e+00 0.0000000000000000e+00
37 0.0000000000000000e+00 0.0000000000000000e+00 0.0000000000000000e+00
38 0.0000000000000000e+00 0.0000000000000000e+00 0.0000000000000000e+00
39 0.0000000000000000e+00 0.0000000000000000e+00 0.0000000000000000e+00
40 0.0000000000000000e+00 0.0000000000000000e+00 0.0000000000000000e+00
41 0.0000000000000000e+00 0.0000000000000000e+00 0.0000000000000000e+00
42 0.0000000000000000e+00 0.0000000000000000e+00 0.0000000000000000e+00
43 0.0000000000000000e+00 0.0000000000000000e+00 0.0000000000000000e+00
44 0.0000000000000000e+00 0.0000000000000000e+00 0.0000000000000000e+00
45 0.0000000000000000e+00 0.0000000000000000e+00 0.0000000000000000e+00
46 0.0000000000000000e+00 0.0000000000000000e+00 0.0000000000000000e+00
47 0.0000000000000000e+00 0.0000000000000000e+00 0.0000000000000000e+00
48 0.0000000000000000e+00 0.0000000000000000e+00 0.0000000000000000e+00
49 0.0000000000000000e+00 0.0000000000000000e+00 0.0000000000000000e+00
50 0.0000000000000000e+00 0.0000000000000000e+00 0.0000000000000000e+00
51 0.0000000000000000e+00 0.0000000000000000e+00 0.0000000000000000e+00
52 0.0000000000000000e+00 0.0000000000000000e+00 0.0000000000000000e+00
53 0.0000000000000000e+00 0.0000000000000000e+00 0.0000000000000000e+00
54 0.0000000000000000e+00 0.0000000000000000e+00 0.0000000000000000e+00
55 0.0000000000000000e+00 0.0000000000000000e+00 0.0000000000000000e+00
56 0.0000000000000000e+00 0.0000000000000000e+00 0.0000000000000000e+00
57 0.0000000000000000e+00 0.0000000000000000e+00 0.0000000000000000e+00
58 0.0000000000000000e+00 0.0000000000000000e+00 0.0000000000000000e+00
59 0.0000000000000000e+00 0.0000000000000000e+00 0.0000000000000000e+00
60 0.0000000000000000e+00 0.0000000000000000e+00 0.0000000000000000e+00
61 0.0000000000000000e+00 0.0000000000000000e+00 0.0000000000000000e+00
62 0.0000000000000000e+00 0.0000000000000000e+00 0.0000000000000000e+00
63 0.0000000000000000e+00 0.0000000000000000e+00 0.0000000000000000e+00
64 0.0000000000000000e+00 0.0000000000000000e+00 0.0000000000000000e+00
65 0.0000000000000000e+00 0.0000000000000000e+00 0.0000000000000000e+00
66 0.0000000000000000e+00 0.0000000000000000e+00 0.0000000000000000e+00
67 0.0000000000000000e+00 0.0000000000000000e+00 0.0000000000000000e+00
68 0.0000000000000000e+00 0.0000000000000000e+00 0.0000000000000000e+00
69 0.0000000000000000e+00 0.0000000000000000e+00 0.0000000000000000e+00
70 0.0000000000000000e+00 0.0000000000000000e+00 0.0000000000000000e+00
71 0.0000000000000000e+00 0.0000000000000000e+00 0.0000000000000000e+00
72 0.0000000000000000e+00 0.0000000000000000e+00 0.0000000000000000e+00
73 0.0000000000000000e+00 0.0000000000000000e+00 0.0000000000000000e+00
74 0.0000000000000000e+00 0.0000000000000000e+00 0.0000000000000000e+00
75 0.0000000000000000e+00 0.0000000000000000e+00 0.0000000000000000e+00
76 0.0000000000000000e+00 0.0000000000000000e+00 0.0000000000000000e+00
77 0.0000000000000000e+00 0.0000000000000000e+00 0.0000000000000000e+00
78 0.0000000000000000e+00 0.0000000000000000e+00 0.0000000000000000e+00
79 0.0000000000000000e+00 0.0000000000000000e+00 0.0000000000000000e+00
80 0.0000000000000000e+00 0.0000000000000000e+00 0.0000000000000000e+00
81 0.0000000000000000e+00 0.0000000000000000e+00 0.0000000000000000e+00
82 0.0000000000000000e+00 0.0000000000000000e+00 0.0000000000000000e+00
83 0.0000000000000000e+00 0.0000000000000000e+00 0.0000000000000000e+00
84 0.0000000000000000e+00 0.0000000000000000e+00 0.0000000000000000e+00
85 0.0000000000000000e+00 0.0000000000000000e+00 0.0000000000000000e+00
86 0.0000000000000000e+00 0.0000000000000000e+00 0.0000000000000000e+00
87 0.0000000000000000e+00 0.0000000000000000e+00 0.0000000000000000e+00
88 0.0000000000000000e+00 0.0000000000000000e+00 0.0000000000000000e+00
89 0.0000000000000000e+00 0.0000000000000000e+00 0.0000000000000000e+00
90 0.0000000000000000e+00 0.0000000000000000e+00 0.0000000000000000e+00
91 0.0000000000000000e+00 0.0000000000000000e+00 0.0000000000000000e+00
92 0.0000000000000000e+00 0.0000000000000000e+00 0.0000000000000000e+00
93 0.0000000000000000e+00 0.0000000000000000e+00 0.0000000000000000e+00
94 0.0000000000000000e+00 0.0000000000000000e+00 0.0000000000000000e+00
95 0.0000000000000000e+00 0.0000000000000000e+00 0.0000000000000000e+00
96 0.0000000000000000e+00 0.0000000000000000e+00 0.0000000000000000e+00
97 0.0000000000000000e+00 0.0000000000000000e+00 0.0000000000000000e+00
98 0.0000000000000000e+00 0.0000000000000000e+00 0.0000000000000000e+00
99 0.0000000000000000e+00 0.0000000000000000e+00 0.0000000000000000e+00
100 0.0000000000000000e+00 0.0000000000000000e+00 0.0000000000000000e+00
101 0.0000000000000000e+00 0.0000000000000000e+00 0.0000000000000000e+00
102 0.0000000000000000e+00 0.0000000000000000e+00 0.0000000000000000e+00
103 0.0000000000000000e+00 0.0000000000000000e+00 0.0000000000000000e+00
104 0.0000000000000000e+00 0.0000000000000000e+00 0.0000000000000000e+00
105 0.0000000000000000e+00 0.0000000000000000e+00 0.0000000000000000e+00
106 0.0000000000000000e+00 0.0000000000000000e+00 0.0000000000000000e+00
107 0.0000000000000000e+00 0.0000000000000000e+00 0.0000000000000000e+00
108 0.0000000000000000e+00 0.0000000000000000e+00 0.0000000000000000e+00
