LAMMPS data file via write_data, version 22 Aug 2018, timestep = 0

128 atoms
4 atom types

0.0000000000000000e+00 1.1680000000000000e+01 xlo xhi
0.0000000000000000e+00 1.1680000000000000e+01 ylo yhi
0.0000000000000000e+00 1.1680000000000000e+01 zlo zhi

Masses

1 58.693
2 58.933
3 55.847
4 47.88

Atoms # atomic

1 3 7.2999999999999998e-01 7.2999999999999998e-01 7.2999999999999998e-01 0 0 0
2 3 2.1899999999999999e+00 2.1899999999999999e+00 2.1899999999999999e+00 0 0 0
3 3 3.6499999999999999e+00 7.2999999999999998e-01 7.2999999999999998e-01 0 0 0
4 3 5.1099999999999994e+00 2.1899999999999999e+00 2.1899999999999999e+00 0 0 0
5 3 6.5700000000000003e+00 7.2999999999999998e-01 7.2999999999999998e-01 0 0 0
6 3 8.0299999999999994e+00 2.1899999999999999e+00 2.1899999999999999e+00 0 0 0
7 3 9.4900000000000002e+00 7.2999999999999998e-01 7.2999999999999998e-01 0 0 0
8 3 1.0949999999999999e+01 2.1899999999999999e+00 2.1899999999999999e+00 0 0 0
9 3 7.2999999999999998e-01 3.6499999999999999e+00 7.2999999999999998e-01 0 0 0
10 3 2.1899999999999999e+00 5.1099999999999994e+00 2.1899999999999999e+00 0 0 0
11 3 3.6499999999999999e+00 3.6499999999999999e+00 7.2999999999999998e-01 0 0 0
12 3 5.1099999999999994e+00 5.1099999999999994e+00 2.1899999999999999e+00 0 0 0
13 3 6.5700000000000003e+00 3.6499999999999999e+00 7.2999999999999998e-01 0 0 0
14 3 8.0299999999999994e+00 5.1099999999999994e+00 2.1899999999999999e+00 0 0 0
15 3 9.4900000000000002e+00 3.6499999999999999e+00 7.2999999999999998e-01 0 0 0
16 3 1.0949999999999999e+01 5.1099999999999994e+00 2.1899999999999999e+00 0 0 0
17 3 7.2999999999999998e-01 6.5700000000000003e+00 7.2999999999999998e-01 0 0 0
18 3 2.1899999999999999e+00 8.0299999999999994e+00 2.1899999999999999e+00 0 0 0
19 3 3.6499999999999999e+00 6.5700000000000003e+00 7.2999999999999998e-01 0 0 0
20 3 5.1099999999999994e+00 8.0299999999999994e+00 2.1899999999999999e+00 0 0 0
21 3 6.5700000000000003e+00 6.5700000000000003e+00 7.2999999999999998e-01 0 0 0
22 3 8.0299999999999994e+00 8.0299999999999994e+00 2.1899999999999999e+00 0 0 0
23 3 9.4900000000000002e+00 6.5700000000000003e+00 7.2999999999999998e-01 0 0 0
24 3 1.0949999999999999e+01 8.0299999999999994e+00 2.1899999999999999e+00 0 0 0
25 3 7.2999999999999998e-01 9.4900000000000002e+00 7.2999999999999998e-01 0 0 0
26 3 2.1899999999999999e+00 1.0949999999999999e+01 2.1899999999999999e+00 0 0 0
27 3 3.6499999999999999e+00 9.4900000000000002e+00 7.2999999999999998e-01 0 0 0
28 3 5.1099999999999994e+00 1.0949999999999999e+01 2.1899999999999999e+00 0 0 0
29 3 6.5700000000000003e+00 9.4900000000000002e+00 7.2999999999999998e-01 0 0 0
30 3 8.0299999999999994e+00 1.0949999999999999e+01 2.1899999999999999e+00 0 0 0
31 3 9.4900000000000002e+00 9.4900000000000002e+00 7.2999999999999998e-01 0 0 0
32 3 1.0949999999999999e+01 1.0949999999999999e+01 2.1899999999999999e+00 0 0 0
33 3 7.2999999999999998e-01 7.2999999999999998e-01 3.6499999999999999e+00 0 0 0
34 3 2.1899999999999999e+00 2.1899999999999999e+00 5.1099999999999994e+00 0 0 0
35 3 3.6499999999999999e+00 7.2999999999999998e-01 3.6499999999999999e+00 0 0 0
36 3 5.1099999999999994e+00 2.1899999999999999e+00 5.1099999999999994e+00 0 0 0
37 3 6.5700000000000003e+00 7.2999999999999998e-01 3.6499999999999999e+00 0 0 0
38 3 8.0299999999999994e+00 2.1899999999999999e+00 5.1099999999999994e+00 0 0 0
39 3 9.4900000000000002e+00 7.2999999999999998e-01 3.6499999999999999e+00 0 0 0
40 3 1.0949999999999999e+01 2.1899999999999999e+00 5.1099999999999994e+00 0 0 0
41 3 7.2999999999999998e-01 3.6499999999999999e+00 3.6499999999999999e+00 0 0 0
42 3 2.1899999999999999e+00 5.1099999999999994e+00 5.1099999999999994e+00 0 0 0
43 3 3.6499999999999999e+00 3.6499999999999999e+00 3.6499999999999999e+00 0 0 0
44 3 5.1099999999999994e+00 5.1099999999999994e+00 5.1099999999999994e+00 0 0 0
45 3 6.5700000000000003e+00 3.6499999999999999e+00 3.6499999999999999e+00 0 0 0
46 3 8.0299999999999994e+00 5.1099999999999994e+00 5.1099999999999994e+00 0 0 0
47 3 9.4900000000000002e+00 3.6499999999999999e+00 3.6499999999999999e+00 0 0 0
48 3 1.0949999999999999e+01 5.1099999999999994e+00 5.1099999999999994e+00 0 0 0
49 3 7.2999999999999998e-01 6.5700000000000003e+00 3.6499999999999999e+00 0 0 0
50 3 2.1899999999999999e+00 8.0299999999999994e+00 5.1099999999999994e+00 0 0 0
51 3 3.6499999999999999e+00 6.5700000000000003e+00 3.6499999999999999e+00 0 0 0
52 3 5.1099999999999994e+00 8.0299999999999994e+00 5.1099999999999994e+00 0 0 0
53 3 6.5700000000000003e+00 6.5700000000000003e+00 3.6499999999999999e+00 0 0 0
54 3 8.0299999999999994e+00 8.0299999999999994e+00 5.1099999999999994e+00 0 0 0
55 3 9.4900000000000002e+00 6.5700000000000003e+00 3.6499999999999999e+00 0 0 0
56 3 1.0949999999999999e+01 8.0299999999999994e+00 5.1099999999999994e+00 0 0 0
57 3 7.2999999999999998e-01 9.4900000000000002e+00 3.6499999999999999e+00 0 0 0
58 3 2.1899999999999999e+00 1.0949999999999999e+01 5.1099999999999994e+00 0 0 0
59 3 3.6499999999999999e+00 9.4900000000000002e+00 3.6499999999999999e+00 0 0 0
60 3 5.1099999999999994e+00 1.0949999999999999e+01 5.1099999999999994e+00 0 0 0
61 3 6.5700000000000003e+00 9.4900000000000002e+00 3.6499999999999999e+00 0 0 0
62 3 8.0299999999999994e+00 1.0949999999999999e+01 5.1099999999999994e+00 0 0 0
63 3 9.4900000000000002e+00 9.4900000000000002e+00 3.6499999999999999e+00 0 0 0
64 3 1.0949999999999999e+01 1.0949999999999999e+01 5.1099999999999994e+00 0 0 0
65 3 7.2999999999999998e-01 7.2999999999999998e-01 6.5700000000000003e+00 0 0 0
66 3 2.1899999999999999e+00 2.1899999999999999e+00 8.0299999999999994e+00 0 0 0
67 3 3.6499999999999999e+00 7.2999999999999998e-01 6.5700000000000003e+00 0 0 0
68 3 5.1099999999999994e+00 2.1899999999999999e+00 8.0299999999999994e+00 0 0 0
69 3 6.5700000000000003e+00 7.2999999999999998e-01 6.5700000000000003e+00 0 0 0
70 3 8.0299999999999994e+00 2.1899999999999999e+00 8.0299999999999994e+00 0 0 0
71 3 9.4900000000000002e+00 7.2999999999999998e-01 6.5700000000000003e+00 0 0 0
72 3 1.0949999999999999e+01 2.1899999999999999e+00 8.0299999999999994e+00 0 0 0
73 3 7.2999999999999998e-01 3.6499999999999999e+00 6.5700000000000003e+00 0 0 0
74 3 2.1899999999999999e+00 5.1099999999999994e+00 8.0299999999999994e+00 0 0 0
75 3 3.6499999999999999e+00 3.6499999999999999e+00 6.5700000000000003e+00 0 0 0
76 3 5.1099999999999994e+00 5.1099999999999994e+00 8.0299999999999994e+00 0 0 0
77 3 6.5700000000000003e+00 3.6499999999999999e+00 6.5700000000000003e+00 0 0 0
78 3 8.0299999999999994e+00 5.1099999999999994e+00 8.0299999999999994e+00 0 0 0
79 3 9.4900000000000002e+00 3.6499999999999999e+00 6.5700000000000003e+00 0 0 0
80 3 1.0949999999999999e+01 5.1099999999999994e+00 8.0299999999999994e+00 0 0 0
81 3 7.2999999999999998e-01 6.5700000000000003e+00 6.5700000000000003e+00 0 0 0
82 3 2.1899999999999999e+00 8.0299999999999994e+00 8.0299999999999994e+00 0 0 0
83 3 3.6499999999999999e+00 6.5700000000000003e+00 6.5700000000000003e+00 0 0 0
84 3 5.1099999999999994e+00 8.0299999999999994e+00 8.0299999999999994e+00 0 0 0
85 3 6.5700000000000003e+00 6.5700000000000003e+00 6.5700000000000003e+00 0 0 0
86 3 8.0299999999999994e+00 8.0299999999999994e+00 8.0299999999999994e+00 0 0 0
87 3 9.4900000000000002e+00 6.5700000000000003e+00 6.5700000000000003e+00 0 0 0
88 3 1.0949999999999999e+01 8.0299999999999994e+00 8.0299999999999994e+00 0 0 0
89 3 7.2999999999999998e-01 9.4900000000000002e+00 6.5700000000000003e+00 0 0 0
90 3 2.1899999999999999e+00 1.0949999999999999e+01 8.0299999999999994e+00 0 0 0
91 3 3.6499999999999999e+00 9.4900000000000002e+00 6.5700000000000003e+00 0 0 0
92 3 5.1099999999999994e+00 1.0949999999999999e+01 8.0299999999999994e+00 0 0 0
93 3 6.5700000000000003e+00 9.4900000000000002e+00 6.5700000000000003e+00 0 0 0
94 3 8.0299999999999994e+00 1.0949999999999999e+01 8.0299999999999994e+00 0 0 0
95 3 9.4900000000000002e+00 9.4900000000000002e+00 6.5700000000000003e+00 0 0 0
96 3 1.0949999999999999e+01 1.0949999999999999e+01 8.0299999999999994e+00 0 0 0
97 3 7.2999999999999998e-01 7.2999999999999998e-01 9.4900000000000002e+00 0 0 0
98 3 2.1899999999999999e+00 2.1899999999999999e+00 1.0949999999999999e+01 0 0 0
99 3 3.6499999999999999e+00 7.2999999999999998e-01 9.4900000000000002e+00 0 0 0
100 3 5.1099999999999994e+00 2.1899999999999999e+00 1.0949999999999999e+01 0 0 0
101 3 6.5700000000000003e+00 7.2999999999999998e-01 9.4900000000000002e+00 0 0 0
102 3 8.0299999999999994e+00 2.1899999999999999e+00 1.0949999999999999e+01 0 0 0
103 3 9.4900000000000002e+00 7.2999999999999998e-01 9.4900000000000002e+00 0 0 0
104 3 1.0949999999999999e+01 2.1899999999999999e+00 1.0949999999999999e+01 0 0 0
105 3 7.2999999999999998e-01 3.6499999999999999e+00 9.4900000000000002e+00 0 0 0
106 3 2.1899999999999999e+00 5.1099999999999994e+00 1.0949999999999999e+01 0 0 0
107 3 3.6499999999999999e+00 3.6499999999999999e+00 9.4900000000000002e+00 0 0 0
108 3 5.1099999999999994e+00 5.1099999999999994e+00 1.0949999999999999e+01 0 0 0
109 3 6.5700000000000003e+00 3.6499999999999999e+00 9.4900000000000002e+00 0 0 0
110 3 8.0299999999999994e+00 5.1099999999999994e+00 1.0949999999999999e+01 0 0 0
111 3 9.4900000000000002e+00 3.6499999999999999e+00 9.4900000000000002e+00 0 0 0
112 3 1.0949999999999999e+01 5.1099999999999994e+00 1.0949999999999999e+01 0 0 0
113 3 7.2999999999999998e-01 6.5700000000000003e+00 9.4900000000000002e+00 0 0 0
114 3 2.1899999999999999e+00 8.0299999999999994e+00 1.0949999999999999e+01 0 0 0
115 3 3.6499999999999999e+00 6.5700000000000003e+00 9.4900000000000002e+00 0 0 0
116 3 5.1099999999999994e+00 8.0299999999999994e+00 1.0949999999999999e+01 0 0 0
117 3 6.5700000000000003e+00 6.5700000000000003e+00 9.4900000000000002e+00 0 0 0
118 3 8.0299999999999994e+00 8.0299999999999994e+00 1.0949999999999999e+01 0 0 0
119 3 9.4900000000000002e+00 6.5700000000000003e+00 9.4900000000000002e+00 0 0 0
120 3 1.0949999999999999e+01 8.0299999999999994e+00 1.0949999999999999e+01 0 0 0
121 3 7.2999999999999998e-01 9.4900000000000002e+00 9.4900000000000002e+00 0 0 0
122 3 2.1899999999999999e+00 1.0949999999999999e+01 1.0949999999999999e+01 0 0 0
123 3 3.6499999999999999e+00 9.4900000000000002e+00 9.4900000000000002e+00 0 0 0
124 3 5.1099999999999994e+00 1.0949999999999999e+01 1.0949999999999999e+01 0 0 0
125 3 6.5700000000000003e+00 9.4900000000000002e+00 9.4900000000000002e+00 0 0 0
126 3 8.0299999999999994e+00 1.0949999999999999e+01 1.0949999999999999e+01 0 0 0
127 3 9.4900000000000002e+00 9.4900000000000002e+00 9.4900000000000002e+00 0 0 0
128 3 1.0949999999999999e+01 1.0949999999999999e+01 1.0949999999999999e+01 0 0 0

Velocities

1 0.0000000000000000e+00 0.0000000000000000e+00 0.0000000000000000e+00
2 0.0000000000000000e+00 0.0000000000000000e+00 0.0000000000000000e+00
3 0.0000000000000000e+00 0.0000000000000000e+00 0.0000000000000000e+00
4 0.0000000000000000e+00 0.0000000000000000e+00 0.0000000000000000e+00
5 0.0000000000000000e+00 0.0000000000000000e+00 0.0000000000000000e+00
6 0.0000000000000000e+00 0.0000000000000000e+00 0.0000000000000000e+00
7 0.0000000000000000e+00 0.0000000000000000e+00 0.0000000000000000e+00
8 0.0000000000000000e+00 0.0000000000000000e+00 0.0000000000000000e+00
9 0.0000000000000000e+00 0.0000000000000000e+00 0.0000000000000000e+00
10 0.0000000000000000e+00 0.0000000000000000e+00 0.0000000000000000e+00
11 0.0000000000000000e+00 0.0000000000000000e+00 0.0000000000000000e+00
12 0.0000000000000000e+00 0.0000000000000000e+00 0.0000000000000000e+00
13 0.0000000000000000e+00 0.0000000000000000e+00 0.0000000000000000e+00
14 0.0000000000000000e+00 0.0000000000000000e+00 0.0000000000000000e+00
15 0.0000000000000000e+00 0.0000000000000000e+00 0.0000000000000000e+00
16 0.0000000000000000e+00 0.0000000000000000e+00 0.0000000000000000e+00
17 0.0000000000000000e+00 0.0000000000000000e+00 0.0000000000000000e+00
18 0.0000000000000000e+00 0.0000000000000000e+00 0.0000000000000000e+00
19 0.0000000000000000e+00 0.0000000000000000e+00 0.0000000000000000e+00
20 0.0000000000000000e+00 0.0000000000000000e+00 0.0000000000000000e+00
21 0.0000000000000000e+00 0.0000000000000000e+00 0.0000000000000000e+00
22 0.0000000000000000e+00 0.0000000000000000e+00 0.0000000000000000e+00
23 0.0000000000000000e+00 0.0000000000000000e+00 0.0000000000000000e+00
24 0.0000000000000000e+00 0.0000000000000000e+00 0.0000000000000000e+00
25 0.0000000000000000e+00 0.0000000000000000e+00 0.0000000000000000e+00
26 0.0000000000000000e+00 0.0000000000000000e+00 0.0000000000000000e+00
27 0.0000000000000000e+00 0.0000000000000000e+00 0.0000000000000000e+00
28 0.0000000000000000e+00 0.0000000000000000e+00 0.0000000000000000e+00
29 0.0000000000000000e+00 0.0000000000000000e+00 0.0000000000000000e+00
30 0.0000000000000000e+00 0.0000000000000000e+00 0.0000000000000000e+00
31 0.0000000000000000e+00 0.0000000000000000e+00 0.0000000000000000e+00
32 0.0000000000000000e+00 0.0000000000000000e+00 0.0000000000000000e+00
33 0.0000000000000000e+00 0.0000000000000000e+00 0.0000000000000000e+00
34 0.0000000000000000e+00 0.0000000000000000e+00 0.0000000000000000e+00
35 0.0000000000000000e+00 0.0000000000000000e+00 0.0000000000000000e+00
36 0.0000000000000000e+00 0.0000000000000000e+00 0.0000000000000000e+00
37 0.0000000000000000e+00 0.0000000000000000e+00 0.0000000000000000e+00
38 0.0000000000000000e+00 0.0000000000000000e+00 0.0000000000000000e+00
39 0.0000000000000000e+00 0.0000000000000000e+00 0.0000000000000000e+00
40 0.0000000000000000e+00 0.0000000000000000e+00 0.0000000000000000e+00
41 0.0000000000000000e+00 0.0000000000000000e+00 0.0000000000000000e+00
42 0.0000000000000000e+00 0.0000000000000000e+00 0.0000000000000000e+00
43 0.0000000000000000e+00 0.0000000000000000e+00 0.0000000000000000e+00
44 0.0000000000000000e+00 0.0000000000000000e+00 0.0000000000000000e+00
45 0.0000000000000000e+00 0.0000000000000000e+00 0.0000000000000000e+00
46 0.0000000000000000e+00 0.0000000000000000e+00 0.0000000000000000e+00
47 0.0000000000000000e+00 0.0000000000000000e+00 0.0000000000000000e+00
48 0.0000000000000000e+00 0.0000000000000000e+00 0.0000000000000000e+00
49 0.0000000000000000e+00 0.0000000000000000e+00 0.0000000000000000e+00
50 0.0000000000000000e+00 0.0000000000000000e+00 0.0000000000000000e+00
51 0.0000000000000000e+00 0.0000000000000000e+00 0.0000000000000000e+00
52 0.0000000000000000e+00 0.0000000000000000e+00 0.0000000000000000e+00
53 0.0000000000000000e+00 0.0000000000000000e+00 0.0000000000000000e+00
54 0.0000000000000000e+00 0.0000000000000000e+00 0.0000000000000000e+00
55 0.0000000000000000e+00 0.0000000000000000e+00 0.0000000000000000e+00
56 0.0000000000000000e+00 0.0000000000000000e+00 0.0000000000000000e+00
57 0.0000000000000000e+00 0.0000000000000000e+00 0.0000000000000000e+00
58 0.0000000000000000e+00 0.0000000000000000e+00 0.0000000000000000e+00
59 0.0000000000000000e+00 0.0000000000000000e+00 0.0000000000000000e+00
60 0.0000000000000000e+00 0.0000000000000000e+00 0.0000000000000000e+00
61 0.0000000000000000e+00 0.0000000000000000e+00 0.0000000000000000e+00
62 0.0000000000000000e+00 0.0000000000000000e+00 0.0000000000000000e+00
63 0.0000000000000000e+00 0.0000000000000000e+00 0.0000000000000000e+00
64 0.0000000000000000e+00 0.0000000000000000e+00 0.0000000000000000e+00
65 0.0000000000000000e+00 0.0000000000000000e+00 0.0000000000000000e+00
66 0.0000000000000000e+00 0.0000000000000000e+00 0.0000000000000000e+00
67 0.0000000000000000e+00 0.0000000000000000e+00 0.0000000000000000e+00
68 0.0000000000000000e+00 0.0000000000000000e+00 0.0000000000000000e+00
69 0.0000000000000000e+00 0.0000000000000000e+00 0.0000000000000000e+00
70 0.0000000000000000e+00 0.0000000000000000e+00 0.0000000000000000e+00
71 0.0000000000000000e+00 0.0000000000000000e+00 0.0000000000000000e+00
72 0.0000000000000000e+00 0.0000000000000000e+00 0.0000000000000000e+00
73 0.0000000000000000e+00 0.0000000000000000e+00 0.0000000000000000e+00
74 0.0000000000000000e+00 0.0000000000000000e+00 0.0000000000000000e+00
75 0.0000000000000000e+00 0.0000000000000000e+00 0.0000000000000000e+00
76 0.0000000000000000e+00 0.0000000000000000e+00 0.0000000000000000e+00
77 0.0000000000000000e+00 0.0000000000000000e+00 0.0000000000000000e+00
78 0.0000000000000000e+00 0.0000000000000000e+00 0.0000000000000000e+00
79 0.0000000000000000e+00 0.0000000000000000e+00 0.0000000000000000e+00
80 0.0000000000000000e+00 0.0000000000000000e+00 0.0000000000000000e+00
81 0.0000000000000000e+00 0.0000000000000000e+00 0.0000000000000000e+00
82 0.0000000000000000e+00 0.0000000000000000e+00 0.0000000000000000e+00
83 0.0000000000000000e+00 0.0000000000000000e+00 0.0000000000000000e+00
84 0.0000000000000000e+00 0.0000000000000000e+00 0.0000000000000000e+00
85 0.0000000000000000e+00 0.0000000000000000e+00 0.0000000000000000e+00
86 0.0000000000000000e+00 0.0000000000000000e+00 0.0000000000000000e+00
87 0.0000000000000000e+00 0.0000000000000000e+00 0.0000000000000000e+00
88 0.0000000000000000e+00 0.0000000000000000e+00 0.0000000000000000e+00
89 0.0000000000000000e+00 0.0000000000000000e+00 0.0000000000000000e+00
90 0.0000000000000000e+00 0.0000000000000000e+00 0.0000000000000000e+00
91 0.0000000000000000e+00 0.0000000000000000e+00 0.0000000000000000e+00
92 0.0000000000000000e+00 0.0000000000000000e+00 0.0000000000000000e+00
93 0.0000000000000000e+00 0.0000000000000000e+00 0.0000000000000000e+00
94 0.0000000000000000e+00 0.0000000000000000e+00 0.0000000000000000e+00
95 0.0000000000000000e+00 0.0000000000000000e+00 0.0000000000000000e+00
96 0.0000000000000000e+00 0.0000000000000000e+00 0.0000000000000000e+00
97 0.0000000000000000e+00 0.0000000000000000e+00 0.0000000000000000e+00
98 0.0000000000000000e+00 0.0000000000000000e+00 0.0000000000000000e+00
99 0.0000000000000000e+00 0.0000000000000000e+00 0.0000000000000000e+00
100 0.0000000000000000e+00 0.0000000000000000e+00 0.0000000000000000e+00
101 0.0000000000000000e+00 0.0000000000000000e+00 0.0000000000000000e+00
102 0.0000000000000000e+00 0.0000000000000000e+00 0.0000000000000000e+00
103 0.0000000000000000e+00 0.0000000000000000e+00 0.0000000000000000e+00
104 0.0000000000000000e+00 0.0000000000000000e+00 0.0000000000000000e+00
105 0.0000000000000000e+00 0.0000000000000000e+00 0.0000000000000000e+00
106 0.0000000000000000e+00 0.0000000000000000e+00 0.0000000000000000e+00
107 0.0000000000000000e+00 0.0000000000000000e+00 0.0000000000000000e+00
108 0.0000000000000000e+00 0.0000000000000000e+00 0.0000000000000000e+00
109 0.0000000000000000e+00 0.0000000000000000e+00 0.0000000000000000e+00
110 0.0000000000000000e+00 0.0000000000000000e+00 0.0000000000000000e+00
111 0.0000000000000000e+00 0.0000000000000000e+00 0.0000000000000000e+00
112 0.0000000000000000e+00 0.0000000000000000e+00 0.0000000000000000e+00
113 0.0000000000000000e+00 0.0000000000000000e+00 0.0000000000000000e+00
114 0.0000000000000000e+00 0.0000000000000000e+00 0.0000000000000000e+00
115 0.0000000000000000e+00 0.0000000000000000e+00 0.0000000000000000e+00
116 0.0000000000000000e+00 0.0000000000000000e+00 0.0000000000000000e+00
117 0.0000000000000000e+00 0.0000000000000000e+00 0.0000000000000000e+00
118 0.0000000000000000e+00 0.0000000000000000e+00 0.0000000000000000e+00
119 0.0000000000000000e+00 0.0000000000000000e+00 0.0000000000000000e+00
120 0.0000000000000000e+00 0.0000000000000000e+00 0.0000000000000000e+00
121 0.0000000000000000e+00 0.0000000000000000e+00 0.0000000000000000e+00
122 0.0000000000000000e+00 0.0000000000000000e+00 0.0000000000000000e+00
123 0.0000000000000000e+00 0.0000000000000000e+00 0.0000000000000000e+00
124 0.0000000000000000e+00 0.0000000000000000e+00 0.0000000000000000e+00
125 0.0000000000000000e+00 0.0000000000000000e+00 0.0000000000000000e+00
126 0.0000000000000000e+00 0.0000000000000000e+00 0.0000000000000000e+00
127 0.0000000000000000e+00 0.0000000000000000e+00 0.0000000000000000e+00
128 0.0000000000000000e+00 0.0000000000000000e+00 0.0000000000000000e+00
