ITEM: TIMESTEP
5000
ITEM: NUMBER OF ATOMS
108
ITEM: BOX BOUNDS pp pp pp
-1.2064833574942287e-01 8.8206483357493894e+00
-1.6839219655906246e-01 1.5237234222408093e+01
-8.9453971505438351e-02 1.4296494479647762e+01
ITEM: ATOMS id type x y z 
1 4 2.02975 0.130781 3.4749 
4 4 0.6591 1.09577 0.972289 
5 4 1.98863 3.76521 1.3227 
7 4 0.484323 2.83796 3.54533 
8 4 3.49956 1.17038 1.04691 
11 4 3.63904 2.7811 3.5375 
2 4 4.93526 0.334626 3.3591 
3 4 8.15673 0.24499 3.42959 
9 4 5.06329 3.66483 1.27917 
12 4 6.71229 1.06845 1.12101 
13 4 8.02694 3.72466 1.10848 
15 4 6.50811 2.94653 3.72376 
6 4 2.13888 5.54937 3.52464 
16 4 0.477524 6.24708 0.986545 
17 4 2.08544 8.85609 1.12991 
19 4 0.782007 8.02836 3.40865 
20 4 3.68799 6.26622 1.14464 
23 4 3.77261 7.88218 3.41345 
10 4 5.07886 5.39876 3.57784 
14 4 8.03752 5.55876 3.50405 
21 4 5.11392 8.70869 1.14015 
24 4 6.60232 6.2238 1.01308 
25 4 8.11238 8.79149 1.12755 
27 4 6.61044 8.03172 3.48822 
18 4 2.2133 10.4906 3.51559 
28 4 0.54877 11.4888 1.15658 
29 4 2.11492 13.9616 1.01099 
30 4 0.860835 12.9953 3.43522 
31 4 3.54186 11.2963 1.32349 
33 4 3.67172 13.1168 3.50321 
22 4 5.14343 10.5543 3.51422 
26 4 8.1819 10.5306 3.47955 
32 4 5.0911 13.9281 1.12028 
34 4 6.54871 11.327 1.08467 
35 4 8.04376 13.917 1.03252 
36 4 6.62247 13.191 3.47689 
37 4 1.96601 0.331271 8.36062 
40 4 0.43316 1.03506 5.94958 
41 4 2.01438 3.59429 5.75799 
43 4 0.470288 2.71399 8.23684 
44 4 3.45732 0.983844 5.91199 
47 4 3.65226 2.83011 8.29692 
38 4 5.10706 0.297997 8.29732 
39 4 7.95502 0.250687 8.32141 
45 4 4.78727 3.66294 5.93482 
48 4 6.54007 0.997615 5.93886 
49 4 8.07834 3.72997 5.97677 
51 4 6.50902 2.88304 8.18261 
42 4 1.98527 5.32659 8.17046 
52 4 0.722262 6.33396 5.74111 
53 4 2.2053 8.7801 5.95135 
55 4 0.680503 8.00531 8.3566 
56 4 3.62948 6.37962 5.93201 
59 4 3.73048 7.90737 8.45472 
46 4 5.05875 5.36833 8.30454 
50 4 8.12994 5.58424 8.13034 
57 4 5.23843 8.76359 5.9303 
60 4 6.40822 6.239 6.06095 
61 4 8.24048 8.73821 5.93315 
63 4 6.64468 8.10113 8.36903 
54 4 2.14215 10.6273 8.38467 
64 4 0.728736 11.2718 5.99205 
65 4 2.14385 13.9258 5.87887 
66 4 0.737094 13.0647 8.25412 
67 4 3.57833 11.222 5.84775 
69 4 3.72236 13.1288 8.14776 
58 4 4.99222 10.6352 8.35965 
62 4 8.16048 10.662 8.56181 
68 4 5.36642 13.8728 5.82554 
70 4 6.69997 11.2931 5.96738 
71 4 8.33599 13.7178 5.82007 
72 4 6.50779 13.1202 8.48473 
73 4 2.19656 0.4176 12.95 
76 4 0.515518 1.16846 10.6138 
77 4 1.9404 3.5895 10.6378 
79 4 0.65052 2.89866 13.1671 
80 4 3.52921 1.11355 10.5885 
83 4 3.58297 2.91848 12.9733 
74 4 5.07835 0.198793 13.2216 
75 4 7.97545 0.245237 12.9262 
81 4 5.16669 3.64731 10.6226 
84 4 6.41189 1.08302 10.7634 
85 4 7.97244 3.63671 10.5802 
87 4 6.50623 2.86736 13.1505 
78 4 2.15508 5.38852 13.1023 
88 4 0.602198 6.17734 10.5581 
89 4 2.12317 8.82272 10.6839 
91 4 0.557665 7.93554 13.0753 
92 4 3.56474 6.14514 10.6511 
95 4 3.6278 7.87686 13.0235 
82 4 5.00888 5.31744 13.1458 
86 4 8.05357 5.41724 13.0074 
93 4 5.08629 9.02789 10.8455 
96 4 6.73302 6.34622 10.658 
97 4 8.21572 8.77561 10.8101 
99 4 6.50806 7.81909 13.1113 
90 4 2.02362 10.4577 13.2461 
100 4 0.792079 11.4429 10.8869 
101 4 2.19727 14.1112 10.5409 
102 4 0.719551 13.2645 13.0647 
103 4 3.56798 11.3801 10.7238 
105 4 3.62484 13.1992 13.1851 
94 4 5.01663 10.4383 13.2799 
98 4 7.9913 10.5442 13.0299 
104 4 5.15937 14.0174 10.6865 
106 4 6.5513 11.4543 10.797 
107 4 8.25512 13.8694 10.7605 
108 4 6.59347 13.0019 13.0541 
ITEM: TIMESTEP
6000
ITEM: NUMBER OF ATOMS
108
ITEM: BOX BOUNDS pp pp pp
-6.2793230702461914e-02 8.7627932307024778e+00
-9.5664305574025207e-02 1.5164506331423061e+01
-5.7333874046241719e-02 1.4264374382188564e+01
ITEM: ATOMS id type x y z 
1 1 2.48615 0.353613 3.704 
4 4 0.660037 1.302 1.13247 
5 4 2.12234 3.65251 1.10474 
7 4 0.713527 2.83368 3.4486 
8 4 3.6872 1.24949 1.29081 
11 4 3.79005 2.89932 3.61941 
2 4 5.18366 0.267644 3.66549 
3 4 8.15291 0.274406 3.54834 
9 4 5.16049 3.90613 1.17187 
12 4 6.5121 1.21251 1.06857 
13 4 8.01576 3.76007 1.12378 
15 4 6.56991 2.81483 3.39033 
6 4 2.2539 5.48044 3.52814 
16 4 0.632672 6.22718 1.16043 
17 4 2.14779 8.65025 1.0547 
19 4 0.575389 8.02205 3.44009 
20 4 3.75382 6.16759 1.08464 
23 4 3.69386 7.95245 3.50281 
10 4 5.14414 5.5681 3.59488 
14 4 8.0518 5.37434 3.5551 
21 4 5.05202 8.85117 1.02458 
24 4 6.63015 6.30973 1.1254 
25 4 7.93068 8.86324 1.13125 
27 4 6.53895 7.99894 3.50842 
18 4 2.1114 10.3954 3.34441 
28 4 0.738872 11.28 1.04415 
29 4 2.15607 13.9271 1.33012 
30 4 0.685276 13.0919 3.49973 
31 4 3.55047 11.3871 1.15902 
33 4 3.56298 13.1682 3.57751 
22 4 5.17194 10.4832 3.57093 
26 4 8.08282 10.5075 3.49765 
32 4 4.94269 13.8443 1.22719 
34 4 6.53367 11.5043 1.16617 
35 4 8.02842 13.9493 1.07511 
36 4 6.649 12.9814 3.44088 
37 4 2.20175 0.38492 8.32307 
40 4 0.715615 0.988299 5.93224 
41 4 2.06596 3.63468 5.79596 
43 4 0.63722 2.92305 8.27133 
44 4 3.70315 1.07324 5.95147 
47 4 3.578 2.74442 8.08668 
38 4 5.15317 0.33694 8.43384 
39 4 8.26108 0.301253 8.41248 
45 4 5.22314 3.7899 5.86664 
48 4 6.61156 1.07255 5.97006 
49 4 8.10855 3.64158 5.82824 
51 4 6.61619 2.86886 8.11173 
42 4 2.16732 5.43341 8.11703 
52 4 0.734357 6.10947 5.8753 
53 4 2.04386 8.82408 5.76375 
55 4 0.687231 7.94721 8.21807 
56 4 3.75091 6.36614 5.92329 
59 4 3.58014 7.99565 8.32465 
46 4 5.15315 5.29855 8.22515 
50 4 7.99626 5.3477 8.1466 
57 4 5.16948 8.83131 6.05547 
60 4 6.69217 6.39495 5.8327 
61 4 8.02276 8.95285 5.8733 
63 4 6.53583 8.0983 8.36369 
54 4 2.19708 10.4747 8.13535 
64 4 0.792055 11.3211 5.79316 
65 4 2.22236 13.8936 5.93923 
66 4 0.693081 13.1411 8.34749 
67 4 3.67617 11.3059 5.69164 
69 4 3.52037 12.964 8.36913 
58 4 4.86886 10.6215 8.27929 
62 4 8.02115 10.6074 8.28233 
68 4 5.09748 13.6885 5.90517 
70 4 6.5386 11.2569 5.92254 
71 4 7.94934 13.7719 5.99827 
72 4 6.47101 13.019 8.36725 
73 4 2.08777 0.419952 13.2229 
76 4 0.757311 1.2366 10.6 
77 4 2.0592 3.84984 10.6912 
79 4 0.594725 2.78341 13.046 
80 4 3.43367 1.21474 10.8032 
83 4 3.42406 2.87928 13.179 
74 4 5.0872 0.489164 13.032 
75 4 7.98237 0.374336 12.9713 
81 4 5.04858 3.74668 10.6488 
84 4 6.46799 1.28951 10.5741 
85 4 7.84157 3.68885 10.6641 
87 4 6.62663 2.84068 13.1837 
78 4 2.07806 5.48293 13.1348 
88 4 0.663595 6.32842 10.6032 
89 4 2.10829 8.75631 10.8574 
91 4 0.486225 7.80378 13.0562 
92 4 3.5794 6.22304 10.8421 
95 4 3.55457 7.90518 13.0742 
82 4 5.03926 5.34486 13.0345 
86 4 8.15855 5.3483 13.0333 
93 4 4.94863 8.74155 10.7475 
96 4 6.5426 6.20689 10.4871 
97 4 8.08716 8.95704 10.675 
99 4 6.48706 7.83929 13.063 
90 4 2.18804 10.422 13.181 
100 4 0.593232 11.4813 10.6347 
101 4 2.11918 13.8235 10.694 
102 4 0.647608 13.1642 13.088 
103 4 3.48902 11.1826 10.7153 
105 4 3.46986 12.9639 13.0879 
94 4 5.01646 10.4956 13.1478 
98 4 8.08914 10.4771 13.0745 
104 4 5.0293 13.9737 10.8781 
106 4 6.51756 11.3861 10.8881 
107 4 7.95721 13.9857 10.7416 
108 4 6.37292 12.9656 13.224 
ITEM: TIMESTEP
7000
ITEM: NUMBER OF ATOMS
108
ITEM: BOX BOUNDS pp pp pp
-1.0030061817843017e-01 8.8003006181784489e+00
-2.1902506565943211e-01 1.5287867091508476e+01
-8.9673915515469632e-02 1.4296714423657765e+01
ITEM: ATOMS id type x y z 
1 1 2.22621 0.0770958 3.5602 
4 4 0.74988 1.07973 1.25848 
5 4 2.05936 3.71787 1.14451 
7 4 0.70804 2.77648 3.53007 
8 4 3.68816 1.27503 1.16265 
11 4 3.5377 2.65977 3.60143 
2 4 5.02549 0.117621 3.6733 
3 4 8.10576 0.268175 3.56626 
9 4 5.17321 3.79973 1.29803 
12 4 6.63816 0.920363 1.07125 
13 4 8.1131 3.49725 1.21406 
15 4 6.50004 2.73782 3.40092 
6 4 1.84493 5.40105 3.54954 
16 4 0.677436 6.23122 1.09605 
17 4 2.11103 8.76667 1.10488 
19 4 0.636051 8.0126 3.41602 
20 4 3.32927 6.15147 1.12469 
23 4 3.34128 7.87601 3.58661 
10 4 4.9544 5.50727 3.47147 
14 4 7.85223 5.41681 3.49422 
21 4 4.92031 8.7705 1.11594 
24 4 6.40308 6.25438 1.00816 
25 4 8.15088 8.73332 1.11427 
27 4 6.66332 8.0666 3.42561 
18 4 2.19929 10.5234 3.42973 
28 4 0.876686 11.4611 1.08576 
29 4 2.2117 14.0468 1.11502 
30 4 0.596788 13.3148 3.58528 
31 4 3.6181 11.6833 1.25064 
33 4 3.66381 13.307 3.63153 
22 4 5.34091 10.5343 3.33963 
26 4 8.19359 10.5164 3.51597 
32 4 5.0239 14.0276 1.03052 
34 4 6.70624 11.5469 1.03723 
35 4 8.13523 13.9849 1.03996 
36 4 6.59036 13.0826 3.49467 
37 4 2.05739 0.19573 8.18954 
40 4 0.73756 1.03391 5.83401 
41 4 2.0007 3.76901 6.09363 
43 4 0.513609 2.66125 8.20421 
44 4 3.42517 1.05343 5.87244 
47 4 3.51552 2.9152 8.33145 
38 4 5.14186 0.320624 8.22707 
39 4 7.98345 0.172551 8.31439 
45 4 5.11699 3.52593 5.94833 
48 4 6.51677 0.951441 5.92623 
49 4 7.89162 3.67454 5.69351 
51 4 6.5376 2.66241 8.30884 
42 4 2.02854 5.50673 8.36041 
52 4 0.483387 6.26099 5.85115 
53 4 2.173 8.91751 5.98848 
55 4 0.699688 8.04567 8.24255 
56 4 3.58971 6.33825 5.84592 
59 4 3.62922 7.98165 8.20984 
46 4 5.10102 5.34022 8.28866 
50 4 7.89771 5.33333 8.25533 
57 4 5.09497 8.93718 5.80568 
60 4 6.43738 6.23685 6.00395 
61 4 8.11585 8.84472 5.67963 
63 4 6.5988 7.88265 8.28122 
54 4 2.19814 10.5148 8.3209 
64 4 0.859426 11.4433 5.65742 
65 4 2.15232 14.0188 5.83894 
66 4 0.689311 13.071 8.37294 
67 4 3.68963 11.4505 6.02709 
69 4 3.64182 13.2764 8.56936 
58 4 5.25339 10.5892 8.29651 
62 4 8.25328 10.6265 8.21456 
68 4 5.21196 13.8534 5.99646 
70 4 6.71169 11.3085 5.80299 
71 4 8.19628 13.9473 6.00451 
72 4 6.59197 13.1546 8.38221 
73 4 2.29162 0.344825 13.0822 
76 4 0.575714 1.02963 10.663 
77 4 2.09766 3.52316 10.6743 
79 4 0.581324 2.90515 13.1898 
80 4 3.63175 1.18038 10.5877 
83 4 3.7559 2.89445 13.1947 
74 4 5.11215 0.284878 13.2486 
75 4 8.09289 0.313727 13.0652 
81 4 5.20508 3.76131 10.6441 
84 4 6.47447 1.06468 10.8178 
85 4 8.14608 3.60943 10.6543 
87 4 6.48419 2.74366 13.1505 
78 4 2.07921 5.24857 12.8551 
88 4 0.598801 6.04843 10.713 
89 4 2.19566 8.81499 10.6858 
91 4 0.771689 7.53162 12.9424 
92 4 3.56641 6.11572 10.5788 
95 4 3.7345 8.02572 13.0706 
82 4 4.86901 5.36004 13.0966 
86 4 7.88684 5.2378 13.1811 
93 4 5.01278 8.8722 10.6062 
96 4 6.61002 6.31198 10.8644 
97 4 8.21642 8.81815 10.659 
99 4 6.55802 8.06279 12.9954 
90 4 2.01064 10.2724 13.0612 
100 4 0.754384 11.4006 10.7612 
101 4 2.08066 14.1393 10.6782 
102 4 0.612983 13.0574 13.0232 
103 4 3.75567 11.4116 10.7069 
105 4 3.48078 13.0153 13.1238 
94 4 4.94504 10.6773 13.3117 
98 4 7.95705 10.5343 13.161 
104 4 5.23534 14.1818 10.7381 
106 4 6.66456 11.4136 10.8246 
107 4 8.12861 14.0296 10.8527 
108 4 6.44768 13.2778 13.134 
ITEM: TIMESTEP
8000
ITEM: NUMBER OF ATOMS
108
ITEM: BOX BOUNDS pp pp pp
-4.8734365959558761e-02 8.7487343659595904e+00
-1.2012860593977506e-01 1.5188970631788797e+01
-6.8298712909232256e-02 1.4275339221051544e+01
ITEM: ATOMS id type x y z 
1 1 1.99768 0.146816 3.52823 
4 4 0.394109 1.17731 1.20284 
5 4 2.14904 3.58272 1.03862 
7 4 0.87791 2.7733 3.59443 
8 4 3.37869 1.10305 1.21439 
11 4 3.68217 2.91862 3.6169 
2 4 4.836 0.293851 3.55349 
3 4 7.933 0.084893 3.55331 
9 4 5.19179 3.66689 1.1908 
12 4 6.3077 1.23594 0.989987 
13 4 8.10706 3.76007 1.11665 
15 4 6.64363 2.72766 3.62995 
6 4 2.26863 5.41582 3.46059 
16 4 0.805139 6.15657 1.30658 
17 4 2.23207 8.79138 1.10906 
19 4 0.686218 8.04169 3.48203 
20 4 3.7717 6.22866 1.21232 
23 4 3.66801 8.07888 3.52645 
10 4 5.06852 5.46692 3.66746 
14 4 7.9164 5.42185 3.47941 
21 4 5.15452 8.74439 1.13293 
24 4 6.54204 6.23658 1.13778 
25 4 8.03849 8.74424 1.3015 
27 4 6.44666 8.20801 3.69151 
18 4 2.00607 10.4356 3.48712 
28 4 0.761173 11.2334 1.08722 
29 4 2.11874 13.7743 1.13774 
30 4 0.635581 13.0009 3.3246 
31 4 3.76669 11.2735 1.11419 
33 4 3.41549 13.1108 3.48323 
22 4 4.91349 10.61 3.54842 
26 4 7.9786 10.7545 3.3858 
32 4 5.14148 13.9108 1.0768 
34 4 6.67689 11.3662 1.12053 
35 4 7.78861 13.8456 1.00863 
36 4 6.25782 13.0365 3.52104 
37 4 2.10538 0.233339 8.28281 
40 4 0.511513 0.978169 5.79267 
41 4 2.16158 3.69546 6.04126 
43 4 0.783978 2.69927 8.29878 
44 4 3.35207 1.11239 5.85802 
47 4 3.88045 2.8905 8.12692 
38 4 5.1597 0.369099 8.35822 
39 4 8.07602 0.360016 8.14403 
45 4 5.10369 3.76453 5.84308 
48 4 6.40706 1.1584 5.91771 
49 4 7.92454 3.80466 6.00007 
51 1 6.75892 2.9639 8.30463 
42 4 2.29672 5.1935 8.53613 
52 4 0.638426 6.2028 5.80821 
53 4 2.05302 8.79987 6.03113 
55 4 0.875753 7.98106 8.41932 
56 4 3.58652 6.26697 6.01704 
59 4 3.6874 8.05092 8.42038 
46 4 5.23988 5.28273 8.27791 
50 4 8.146 5.52735 8.13706 
57 4 4.91282 8.85877 6.01794 
60 4 6.42558 6.45922 5.79644 
61 4 7.90773 8.84086 5.88796 
63 4 6.66916 7.88065 8.24992 
54 4 2.12163 10.5191 8.17184 
64 4 0.687645 11.4655 6.01701 
65 4 1.96508 13.8664 5.69096 
66 4 0.64162 13.0231 8.44966 
67 4 3.49781 11.3856 5.8059 
69 4 3.36149 13.0541 8.28598 
58 4 4.97446 10.6613 8.2754 
62 4 8.01256 10.605 8.34601 
68 4 4.87589 13.9268 6.01015 
70 4 6.50521 11.3747 5.78785 
71 4 7.94221 13.7709 5.95388 
72 4 6.49999 13.0517 8.23652 
73 4 1.94987 0.315625 13.0791 
76 4 0.792951 1.08405 10.6198 
77 4 2.11708 3.61425 10.743 
79 4 0.709006 2.73631 13.0664 
80 4 3.62694 1.2671 10.6746 
83 4 3.95368 2.83935 13.2308 
74 4 5.0639 0.313647 12.9296 
75 4 8.05518 0.320552 13.2444 
81 4 5.15779 3.77069 10.6283 
84 4 6.61242 1.34876 10.6219 
85 4 8.09589 3.83135 10.5379 
87 4 6.78724 3.03027 13.0551 
78 4 2.28428 5.43482 13.1757 
88 4 0.802628 6.1917 10.7712 
89 4 2.32546 9.0096 10.6914 
91 4 0.806452 7.85149 13.0785 
92 4 3.82484 6.31126 10.6033 
95 4 3.53134 7.93095 13.0285 
82 4 5.09416 5.49759 13.104 
86 4 8.11045 5.42233 13.111 
93 4 5.28066 8.76694 10.8861 
96 4 6.67613 6.2737 10.6378 
97 4 8.08418 8.86794 10.5605 
99 4 6.77289 7.92934 13.2416 
90 4 2.13938 10.5294 13.2163 
100 4 0.677406 11.3618 10.7127 
101 4 2.2044 14.0113 10.7771 
102 4 0.652815 13.1727 13.0136 
103 4 3.69433 11.551 10.8668 
105 4 3.58944 13.203 13.1068 
94 4 5.19914 10.2774 13.1283 
98 4 8.01114 10.3313 13.033 
104 4 5.06926 13.9441 10.5946 
106 4 6.42735 11.4054 10.6925 
107 4 7.9609 14.0073 10.4781 
108 4 6.629 13.0283 12.8955 
ITEM: TIMESTEP
9000
ITEM: NUMBER OF ATOMS
108
ITEM: BOX BOUNDS pp pp pp
-8.6387197531065579e-02 8.7863871975311092e+00
-1.4501969750986016e-01 1.5213861723358885e+01
-8.4914474883040575e-02 1.4291954983025347e+01
ITEM: ATOMS id type x y z 
1 1 2.01567 0.106082 3.49593 
4 4 0.887536 0.982917 1.13534 
5 4 2.08893 3.66232 1.15144 
7 4 0.743664 2.60223 3.52963 
8 4 3.7269 1.14832 1.34578 
11 4 3.44653 2.84816 3.47806 
2 4 5.1125 0.464896 3.72513 
3 4 7.9407 0.362676 3.53156 
9 4 5.02885 3.82828 1.06063 
12 4 6.6834 1.17999 1.03873 
13 4 8.25393 3.56853 1.05726 
15 4 6.4593 2.94047 3.49007 
6 4 1.9746 5.45742 3.53644 
16 4 0.810228 6.29676 1.04589 
17 4 2.24902 8.89625 1.14858 
19 4 0.517619 8.06113 3.58244 
20 4 3.56768 6.3935 1.18855 
23 4 3.54619 7.98425 3.64381 
10 4 4.97168 5.43879 3.49842 
14 4 8.05034 5.28595 3.41685 
21 4 5.10819 9.06598 1.10763 
24 4 6.50108 6.19088 1.09487 
25 4 8.04496 8.6989 1.07433 
27 4 6.56251 7.95427 3.46784 
18 4 2.26342 10.5585 3.427 
28 4 0.534587 11.0747 0.932164 
29 4 2.30981 13.9259 0.877237 
30 4 0.786183 13.0783 3.44616 
31 4 3.65379 11.4816 1.13902 
33 4 3.80845 13.3338 3.53649 
22 4 5.05173 10.6346 3.53638 
26 4 7.90979 10.3996 3.49311 
32 4 5.25709 13.9841 1.18111 
34 4 6.52232 11.3643 1.22579 
35 4 8.23056 13.9303 1.00347 
36 4 6.78507 13.0739 3.51131 
37 4 2.1202 0.251727 8.36339 
40 4 0.663548 0.999129 5.79644 
41 4 2.00725 3.55985 5.8637 
43 4 0.572269 2.81427 8.19899 
44 4 3.49245 1.09796 5.93381 
47 4 3.61357 2.77103 8.27698 
38 4 5.12404 0.317836 8.35063 
39 4 8.09806 0.255714 8.23829 
45 4 4.91129 3.89051 5.96645 
48 4 6.66509 1.16347 6.08308 
49 4 8.04558 3.76529 5.94168 
51 1 6.44402 3.00299 7.99809 
42 4 1.99009 5.30605 8.35084 
52 4 0.464183 6.40048 6.0459 
53 4 2.06786 8.88192 5.82282 
55 4 0.599593 8.01736 8.41521 
56 4 3.43689 6.15426 6.11459 
59 4 3.56677 7.94297 8.35741 
46 4 5.21109 5.45436 8.32664 
50 4 7.95904 5.40082 8.35156 
57 4 5.02539 8.75963 6.03908 
60 4 6.50815 6.15319 5.89126 
61 4 7.9814 8.96046 5.99605 
63 4 6.69807 8.03834 8.37415 
54 4 2.16632 10.5904 8.25648 
64 4 0.625816 11.3791 5.80842 
65 4 2.07004 13.8929 5.76748 
66 4 0.820906 13.12 8.35444 
67 4 3.62301 11.4835 5.98177 
69 4 3.68795 13.0432 8.36145 
58 4 5.29256 10.6015 8.50462 
62 4 8.174 10.7489 8.34595 
68 4 5.22756 14.1219 5.88777 
70 4 6.38977 11.5543 5.91928 
71 4 8.12693 13.8655 5.78378 
72 4 6.67168 13.1446 8.23277 
73 4 2.26011 0.236827 13.0829 
76 4 0.796352 1.128 10.6842 
77 4 1.94929 3.74067 10.7549 
79 4 0.700935 2.81724 13.1464 
80 4 3.62646 1.2253 10.8451 
83 4 3.5764 2.78926 13.1169 
74 4 5.23838 0.247322 13.1365 
75 4 8.10021 0.465978 13.0868 
81 4 5.07275 3.70497 10.5462 
84 4 6.52563 1.11798 10.6557 
85 4 7.90704 3.48893 10.478 
87 4 6.42143 2.89437 13.0707 
78 4 2.13379 5.36459 13.213 
88 4 0.471571 6.23222 10.906 
89 4 2.03901 8.62129 10.6895 
91 4 0.725962 8.06677 13.1653 
92 4 3.53182 6.08974 10.6066 
95 4 3.72948 7.67562 13.0211 
82 2 5.19655 5.26552 13.0013 
86 4 7.89378 5.43671 13.1778 
93 4 5.087 8.72438 10.5692 
96 4 6.523 6.27358 10.8719 
97 4 7.91791 8.85648 10.7502 
99 4 6.39962 7.99518 13.2018 
90 4 2.34826 10.3967 13.1559 
100 4 0.699035 11.3924 10.7274 
101 4 2.28546 13.9288 10.7474 
102 4 0.81688 13.0699 12.9486 
103 4 3.57433 11.3756 10.6907 
105 4 3.80251 13.0354 13.0742 
94 4 5.02562 10.4455 12.9215 
98 4 7.86158 10.4583 13.0091 
104 4 5.13126 13.9205 10.6531 
106 4 6.57922 11.4092 10.7281 
107 4 8.10167 13.9912 10.6505 
108 4 6.72261 13.2437 13.153 
ITEM: TIMESTEP
10000
ITEM: NUMBER OF ATOMS
108
ITEM: BOX BOUNDS pp pp pp
-4.9239919983347986e-02 8.7492399199833422e+00
-1.3576305296876973e-01 1.5204605078817790e+01
-5.7312363298264286e-02 1.4264352871440570e+01
ITEM: ATOMS id type x y z 
1 1 2.15372 0.175671 3.65237 
4 4 0.859706 1.07257 1.29927 
5 4 2.11036 3.69252 1.22922 
7 4 0.691664 2.74571 3.52803 
8 4 3.69382 1.20117 0.980685 
11 4 3.5144 2.77409 3.35051 
2 4 5.0317 0.400451 3.38109 
3 4 8.06848 0.335549 3.55856 
9 4 5.17273 3.85085 1.12171 
12 4 6.69252 1.12659 1.23698 
13 4 8.09612 3.66894 1.16058 
15 4 6.42314 2.85046 3.50783 
6 4 2.03024 5.6319 3.59624 
16 4 0.83232 6.35279 1.00507 
17 4 2.21787 8.80301 1.26136 
19 4 0.763272 8.07678 3.57716 
20 4 3.61607 6.32612 1.1572 
23 4 3.70597 7.92406 3.5669 
10 4 4.92937 5.27816 3.54036 
14 4 8.02333 5.28618 3.42925 
21 4 5.2848 8.78487 1.00237 
24 4 6.6223 6.33508 1.07969 
25 4 8.16166 9.01234 1.01541 
27 4 6.72511 7.90671 3.47491 
18 4 2.18888 10.4977 3.51624 
28 4 0.796654 11.4274 1.23636 
29 4 2.36456 13.9272 1.38989 
30 4 0.806408 13.0559 3.65954 
31 4 3.74698 11.2586 1.10265 
33 4 3.72699 12.912 3.6836 
22 4 5.17446 10.4326 3.41629 
26 4 8.04633 10.5751 3.54176 
32 4 5.15003 13.8254 1.26121 
34 4 6.61071 11.4292 1.07619 
35 4 8.34215 13.8945 1.15169 
36 4 6.7338 13.1045 3.64022 
37 4 2.22127 0.248243 8.36833 
40 4 0.707161 1.12707 6.02222 
41 4 2.10668 3.76848 5.9205 
43 4 0.634191 2.92869 8.37949 
44 4 3.58654 1.28534 5.83543 
47 4 3.69501 2.81046 8.25574 
38 4 5.15167 0.38381 8.09562 
39 4 8.10119 0.30775 8.34182 
45 4 5.0949 3.67519 5.87008 
48 4 6.63417 1.13381 5.72377 
49 4 7.93468 3.71049 5.95127 
51 1 6.70967 2.77989 8.18145 
42 4 2.27446 5.50168 8.2509 
52 4 0.654088 6.2279 5.94813 
53 4 2.32498 8.92014 5.95372 
55 4 0.673904 7.94871 8.37758 
56 4 3.68452 6.41297 5.93144 
59 4 3.69764 7.9031 8.25037 
46 4 5.24808 5.24465 8.26789 
50 4 7.96874 5.3565 8.24062 
57 4 5.26257 8.87 5.82812 
60 4 6.59446 6.38794 5.87231 
61 4 8.21222 8.92488 5.851 
63 4 6.57115 7.88131 8.26706 
54 4 2.03229 10.4821 8.47395 
64 4 0.735674 11.3531 5.91658 
65 4 2.30495 13.9209 6.07428 
66 4 0.659126 12.9374 8.29666 
67 4 3.66864 11.3118 6.10227 
69 4 3.65008 13.0222 8.34591 
58 4 5.08023 10.4623 8.25608 
62 4 7.98973 10.4949 8.3108 
68 4 5.20518 13.9504 5.86101 
70 4 6.50535 11.3123 6.00651 
71 4 8.18041 13.96 6.00348 
72 4 6.52299 13.3533 8.28012 
73 4 2.01719 0.252651 13.0236 
76 4 0.493414 1.09168 10.7445 
77 4 1.82811 3.74839 10.5742 
79 4 0.598304 2.94469 13.0988 
80 4 3.38532 1.21735 10.8725 
83 4 3.57096 2.78063 13.1753 
74 4 5.1088 0.48454 13.168 
75 4 7.98407 0.290793 13.1964 
81 4 4.7653 3.5601 10.7304 
84 4 6.40907 1.2052 10.7662 
85 4 7.68391 3.82308 10.6388 
87 4 6.49227 3.03427 13.1654 
78 4 2.09 5.32539 13.064 
88 4 0.664648 6.29275 10.6455 
89 4 2.03153 8.76198 10.7226 
91 4 0.476297 7.85407 13.0398 
92 4 3.54679 6.21148 10.7047 
95 4 3.46477 7.98185 13.1208 
82 2 5.05694 5.39519 12.8864 
86 4 8.12163 5.37864 13.1052 
93 4 5.09003 8.80587 10.7331 
96 4 6.41148 6.303 10.6654 
97 4 7.92408 8.82044 10.6194 
99 4 6.52745 7.98077 13.0672 
90 4 2.13606 10.3593 13.0155 
100 4 0.609842 11.3861 10.6681 
101 4 1.97343 13.8879 10.5734 
102 4 0.614246 13.0788 13.0628 
103 4 3.64986 11.2432 10.5941 
105 4 3.45308 12.9483 13.1572 
94 4 5.1524 10.4686 12.9991 
98 4 7.96947 10.5705 13.0276 
104 4 4.92301 14.0947 10.917 
106 4 6.45788 11.585 10.5077 
107 4 7.86605 14.0316 10.6589 
108 4 6.49785 13.1819 13.0578 
ITEM: TIMESTEP
11000
ITEM: NUMBER OF ATOMS
108
ITEM: BOX BOUNDS pp pp pp
-6.3585073604386519e-02 8.7635850736043910e+00
-1.5964808786001902e-01 1.5228490113709086e+01
-6.7048126356292204e-02 1.4274088634498625e+01
ITEM: ATOMS id type x y z 
1 2 2.04739 0.174483 3.6496 
4 4 0.756936 1.13265 1.17352 
5 4 2.12055 3.88607 1.18029 
7 4 0.725127 2.83499 3.52941 
8 4 3.47975 1.35178 1.07386 
11 4 3.53424 2.72977 3.64016 
2 4 5.07706 0.311088 3.4132 
3 4 8.09527 0.244113 3.55625 
9 4 5.13155 3.49295 1.22289 
12 4 6.73514 1.17402 1.15605 
13 4 8.05745 3.71279 1.06013 
15 4 6.81127 2.73307 3.50601 
6 4 2.08382 5.5542 3.56845 
16 4 0.713336 6.23889 1.25298 
17 4 2.23073 8.88138 1.02945 
19 4 0.571866 7.91947 3.59367 
20 4 3.81559 6.07764 1.16043 
23 4 3.57767 8.0294 3.38526 
10 4 5.10262 5.28008 3.54217 
14 4 7.97111 5.32506 3.59281 
21 4 5.12469 8.89611 1.15673 
24 4 6.64426 6.3011 1.042 
25 4 8.05894 8.83914 1.20129 
27 4 6.47418 7.99203 3.58767 
18 4 2.09417 10.4901 3.58603 
28 4 0.86295 11.289 1.21737 
29 4 1.99483 14.0097 1.19645 
30 4 0.691481 13.0762 3.54224 
31 4 3.56082 11.4642 1.25738 
33 4 3.4528 13.0598 3.57714 
22 4 5.06483 10.6288 3.66262 
26 4 8.06985 10.5827 3.61476 
32 4 4.91467 14.0765 1.07704 
34 4 6.53342 11.3822 1.24467 
35 4 7.95547 13.9517 1.21196 
36 4 6.64384 13.077 3.40078 
37 4 2.15134 0.237917 8.28051 
40 4 0.674911 1.1223 5.77181 
41 4 2.24988 3.72488 5.90743 
43 4 0.714879 2.81655 8.26756 
44 4 3.65891 0.927729 5.77689 
47 4 3.59776 2.83221 8.23319 
38 4 5.14501 0.458741 8.20717 
39 4 8.05143 0.456998 8.13571 
45 4 5.1689 3.6994 5.89841 
48 4 6.47898 1.0723 5.79604 
49 4 8.06111 3.60781 5.97965 
51 2 6.5706 2.93363 8.29887 
42 4 2.15676 5.38215 8.38702 
52 4 0.685187 6.10093 5.96574 
53 4 2.06334 8.78117 5.75666 
55 4 0.699619 7.89802 8.27041 
56 4 3.72155 6.24002 5.85744 
59 4 3.68695 7.87484 8.1804 
46 4 5.07677 5.24608 8.38204 
50 4 7.93737 5.26758 8.33573 
57 4 5.16071 8.98327 5.96168 
60 4 6.53972 6.14582 5.98482 
61 4 8.02782 8.89993 5.98476 
63 4 6.49683 7.83269 8.30303 
54 4 2.17939 10.4554 8.08664 
64 4 0.518936 11.5394 5.98202 
65 4 2.06834 13.9976 6.00329 
66 4 0.676638 13.0164 8.33874 
67 4 3.6924 11.3806 5.86408 
69 4 3.54301 13.0757 8.35851 
58 4 5.17295 10.6518 8.16858 
62 4 8.08993 10.392 8.3262 
68 4 5.09609 13.8972 5.85549 
70 4 6.63246 11.4764 5.80293 
71 4 7.98726 13.9914 5.91932 
72 4 6.69589 13.2757 8.20149 
73 4 2.21177 0.333897 13.0438 
76 4 0.797168 1.16673 10.7509 
77 4 2.02662 3.813 10.7206 
79 4 0.744709 2.86912 13.089 
80 4 3.58161 1.32302 10.7482 
83 4 3.66872 2.92483 13.2165 
74 4 5.14972 0.374774 13.0246 
75 4 8.06577 0.398301 12.9883 
81 4 4.94217 3.73595 10.8343 
84 4 6.65358 1.13874 10.6077 
85 4 7.98998 3.76774 10.9047 
87 4 6.43196 2.90116 13.0612 
78 4 2.11148 5.47765 13.0969 
88 4 0.677749 6.31117 10.7154 
89 4 2.12341 8.78631 10.7713 
91 4 0.676715 8.01082 13.1059 
92 4 3.72319 6.28085 10.6614 
95 4 3.58846 7.84737 13.1662 
82 2 4.96868 5.50068 13.2171 
86 4 8.14934 5.45662 13.0678 
93 4 5.22363 8.70642 10.6796 
96 4 6.67419 6.30875 10.7025 
97 4 8.11148 8.84755 10.8691 
99 4 6.56152 7.88767 13.2293 
90 4 2.16021 10.4925 13.115 
100 4 0.657194 11.2731 10.7307 
101 4 2.08564 13.9448 10.6596 
102 4 0.697105 13.1682 13.1371 
103 4 3.68796 11.2737 10.7158 
105 4 3.59252 13.221 13.002 
94 4 5.06713 10.4585 13.1616 
98 4 8.00453 10.4009 13.0756 
104 4 5.03347 13.9497 10.5982 
106 4 6.58337 11.461 10.5849 
107 4 7.87519 14.0054 10.6226 
108 4 6.46603 12.9809 13.0056 
ITEM: TIMESTEP
12000
ITEM: NUMBER OF ATOMS
108
ITEM: BOX BOUNDS pp pp pp
-3.1807248444627845e-02 8.7318072484446496e+00
-1.4268239873773753e-01 1.5211524424586852e+01
-6.9466652793884365e-02 1.4276507160936236e+01
ITEM: ATOMS id type x y z 
1 2 2.11323 0.309432 3.49919 
4 4 0.758296 0.998223 1.29766 
5 4 2.2231 3.74571 1.1016 
7 4 0.631133 2.98711 3.54331 
8 4 3.54036 1.16261 1.20767 
11 4 3.58865 2.64706 3.51828 
2 4 5.10916 0.260954 3.63111 
3 4 7.97767 0.394676 3.57455 
9 4 5.06501 3.73239 0.933085 
12 4 6.48707 1.22882 1.11417 
13 4 7.98959 3.6401 1.19805 
15 4 6.48963 2.91899 3.46591 
6 4 2.05056 5.26167 3.40427 
16 4 0.74572 6.16182 1.07132 
17 4 2.36991 8.78653 1.21949 
19 4 0.739263 7.85729 3.47526 
20 4 3.72003 6.35122 1.21765 
23 4 3.55506 7.92853 3.69371 
10 4 5.00274 5.35704 3.54419 
14 4 7.86311 5.3885 3.51831 
21 4 5.22153 8.90607 1.14805 
24 4 6.49727 6.25158 1.04334 
25 4 8.0604 8.89135 1.1509 
27 4 6.52466 7.96017 3.47794 
18 4 2.07735 10.5486 3.46041 
28 4 0.663557 11.4406 1.18358 
29 4 2.02238 13.8787 1.02124 
30 4 0.634634 13.2519 3.50781 
31 4 3.63311 11.3423 1.22938 
33 4 3.46397 13.2127 3.38389 
22 4 4.87737 10.6402 3.52942 
26 4 7.7537 10.757 3.45556 
32 4 5.01614 14.0951 1.0832 
34 4 6.47008 11.5882 1.18717 
35 4 7.88363 13.9927 1.23242 
36 4 6.37145 13.1548 3.65938 
37 4 2.11277 0.378546 8.39242 
40 4 0.737372 1.1325 6.01211 
41 4 2.09914 3.72787 5.93239 
43 4 0.728622 2.75017 8.31657 
44 4 3.47726 1.15918 5.91377 
47 4 3.65701 2.77171 8.34507 
38 4 5.17209 0.436431 8.30446 
39 4 7.98292 0.344113 8.27015 
45 4 5.05288 3.56775 5.88334 
48 4 6.53137 0.97288 6.01895 
49 4 7.96196 3.64373 6.07323 
51 2 6.73967 2.88254 8.35284 
42 4 2.05136 5.26339 8.31144 
52 4 0.635943 6.21816 5.81477 
53 4 2.25507 8.68694 6.02497 
55 4 0.692045 7.95832 8.38199 
56 4 3.51146 6.13193 5.95013 
59 4 3.71312 7.72964 8.22581 
46 4 4.97524 5.35372 8.31323 
50 4 8.01696 5.37511 8.51497 
57 4 5.18695 8.58321 5.80017 
60 4 6.40254 6.14196 6.09028 
61 4 8.07928 8.8733 5.90342 
63 4 6.46635 7.90544 8.36326 
54 4 2.20726 10.4094 8.343 
64 4 0.716703 11.3668 5.88435 
65 4 2.09982 13.9625 5.88277 
66 4 0.560006 13.1844 8.27021 
67 4 3.61827 11.363 5.8682 
69 4 3.65265 13.0318 8.42172 
58 4 5.08595 10.4404 8.12528 
62 4 7.95578 10.4524 8.33496 
68 4 4.87729 14.097 5.9615 
70 4 6.61607 11.4264 5.88707 
71 4 8.05022 13.7997 5.95716 
72 4 6.65529 13.1068 8.28314 
73 4 2.12469 0.452341 13.2054 
76 4 0.745486 1.21956 10.7037 
77 4 2.11135 3.83148 10.6891 
79 4 0.739282 2.92486 13.2088 
80 4 3.7004 1.23088 10.752 
83 4 3.74018 2.90287 12.9311 
74 4 5.11978 0.324443 13.0601 
75 4 8.04428 0.44337 13.0938 
81 4 5.18439 3.78674 10.7837 
84 4 6.60045 1.16699 10.5564 
85 4 7.96428 3.72045 10.6535 
87 4 6.48286 2.97051 13.162 
78 4 2.31785 5.47262 13.0732 
88 4 0.726446 6.2496 10.7251 
89 4 2.24905 8.78193 10.8047 
91 4 0.772433 8.02773 13.1292 
92 4 3.71221 6.28294 10.6423 
95 4 3.72364 8.04637 13.2833 
82 1 5.0415 5.49151 13.1279 
86 4 8.11375 5.34383 12.9952 
93 4 5.17512 8.85706 10.6679 
96 4 6.46556 6.20457 10.85 
97 4 8.12073 8.78363 10.6201 
99 4 6.60105 7.87539 12.9685 
90 4 2.3805 10.4522 13.1713 
100 4 0.870803 11.4385 10.5614 
101 4 2.2255 13.889 10.6355 
102 4 0.801993 13.0511 13.0152 
103 4 3.78093 11.4117 10.6972 
105 4 3.72149 13.0959 13.0278 
94 4 5.23496 10.6065 13.1012 
98 4 8.16799 10.3898 13.108 
104 4 5.10908 13.9408 10.5943 
106 4 6.58405 11.524 10.7892 
107 4 8.03797 13.9765 10.6426 
108 4 6.73517 13.2245 13.0819 
ITEM: TIMESTEP
13000
ITEM: NUMBER OF ATOMS
108
ITEM: BOX BOUNDS pp pp pp
-4.3818465598175330e-02 8.7438184655981477e+00
-1.5803251285268816e-01 1.5226874538701786e+01
-5.9106347336858600e-02 1.4266146855479235e+01
ITEM: ATOMS id type x y z 
1 3 2.12267 0.264199 3.55553 
4 4 0.84017 1.11478 1.13644 
5 4 2.14311 3.68355 1.14907 
7 4 0.907272 2.67359 3.52382 
8 4 3.5358 1.07671 1.30834 
11 4 3.82042 2.80439 3.52616 
2 4 5.11745 0.276195 3.71404 
3 4 8.05717 0.31624 3.59478 
9 4 5.14557 3.6255 0.934815 
12 4 6.45386 1.1213 1.17313 
13 4 8.00012 3.64839 1.16009 
15 4 6.66927 2.84832 3.49697 
6 4 2.12764 5.27542 3.63037 
16 4 0.837711 6.22328 1.14687 
17 4 2.18447 8.78208 1.0419 
19 4 0.507529 7.8715 3.46878 
20 4 3.70982 6.27537 1.13006 
23 4 3.49421 7.97015 3.67582 
10 4 5.1266 5.38768 3.597 
14 4 8.01838 5.4883 3.56213 
21 4 5.1536 8.77857 1.18955 
24 4 6.59877 6.31276 1.03896 
25 4 7.99872 8.82716 1.2506 
27 4 6.37286 7.98817 3.67495 
18 4 2.08775 10.6654 3.74188 
28 4 0.695449 11.3969 1.11229 
29 4 2.26307 13.8194 1.15287 
30 4 0.700286 13.1322 3.56926 
31 4 3.45924 11.2265 1.20507 
33 4 3.62782 13.1251 3.56094 
22 4 5.04729 10.6628 3.509 
26 4 8.0236 10.558 3.52571 
32 4 5.1241 13.9332 1.05874 
34 4 6.70477 11.3481 1.21695 
35 4 8.12687 13.9122 1.18753 
36 4 6.55172 13.1776 3.60419 
37 4 2.30446 0.31332 8.27167 
40 4 0.711008 1.11564 5.86364 
41 4 2.14625 3.70264 5.99254 
43 4 0.663135 2.69829 8.34262 
44 4 3.49018 1.08037 5.73997 
47 4 3.54619 2.80403 8.3215 
38 4 5.23178 0.224112 8.25812 
39 4 8.01148 0.333301 8.1299 
45 4 5.00611 3.58447 5.9156 
48 4 6.55038 1.22984 5.9931 
49 4 8.0142 3.66391 5.75665 
51 1 6.5443 2.90149 8.43475 
42 4 2.34961 5.41707 8.37698 
52 4 0.752105 6.2797 5.98307 
53 4 2.16414 9.01178 5.98796 
55 4 0.748158 7.95211 8.25336 
56 4 3.79169 6.41911 5.9682 
59 4 3.5637 8.13191 8.24039 
46 4 5.16367 5.41588 8.35362 
50 4 8.08793 5.38836 8.44395 
57 4 5.27706 9.04069 6.01163 
60 4 6.51929 6.19136 5.9402 
61 4 8.06819 8.87481 5.94746 
63 4 6.58577 7.78825 8.40765 
54 4 2.18462 10.6429 8.23256 
64 4 0.507853 11.542 5.95432 
65 4 2.23269 13.9463 5.96232 
66 4 0.540198 13.1109 8.32132 
67 4 3.57305 11.487 5.80646 
69 4 3.70405 13.1529 8.31675 