ITEM: TIMESTEP
5000
ITEM: NUMBER OF ATOMS
108
ITEM: BOX BOUNDS pp pp pp
-1.6382384592324533e-02 7.5163823845923519e+00
-8.9025185494063380e-02 1.3079406242260625e+01
-9.3993981490562446e-03 1.2256848112065013e+01
ITEM: ATOMS id type x y z 
1 2 1.79291 0.219092 2.96298 
2 2 4.35005 0.291452 3.05864 
3 2 6.82388 0.352476 3.04684 
4 2 0.588294 0.966506 0.972404 
5 2 1.79976 3.31823 0.957171 
7 2 0.525835 2.36753 3.1413 
8 2 3.06183 0.950735 0.928377 
9 2 4.38308 3.16091 1.00199 
11 2 3.04624 2.47304 2.94708 
12 2 5.56596 0.810614 1.05042 
13 2 6.7943 3.08599 0.973994 
15 2 5.62396 2.59738 3.03394 
40 2 0.656921 1.01578 5.14591 
41 2 2.01129 3.18514 5.03817 
44 2 3.22414 1.08739 5.08873 
45 2 4.46574 3.16099 5.17203 
48 2 5.72063 1.1335 5.122 
49 2 7.04127 3.22178 5.16025 
6 2 1.80908 4.80593 3.08532 
10 2 4.31935 4.60175 3.06486 
14 2 6.95087 4.68356 3.0622 
16 2 0.504252 5.4385 1.0932 
17 2 1.805 7.56217 1.06824 
19 2 0.563359 7.00696 3.09605 
20 2 3.14606 5.44163 0.926452 
21 2 4.26465 7.55072 1.02613 
23 2 3.17774 6.77162 2.95612 
24 2 5.56113 5.30776 0.979544 
25 2 6.89598 7.61748 0.991793 
27 2 5.67034 6.75395 2.96955 
52 2 0.598994 5.47374 5.14913 
53 2 2.02991 7.56678 5.15815 
56 2 3.09934 5.37128 5.07621 
57 2 4.43682 7.5381 4.99368 
60 2 5.69454 5.4136 4.96122 
61 2 6.96021 7.71437 5.13897 
18 2 1.92034 9.18022 3.14304 
22 2 4.40731 9.01537 3.08564 
26 2 6.94766 8.98821 3.1095 
28 2 0.583765 9.81236 1.18719 
29 2 1.80325 11.9281 0.955994 
30 2 0.470242 11.3589 3.14677 
31 2 3.19244 9.67542 1.0323 
32 2 4.4212 11.8455 0.97681 
33 2 3.12025 11.2561 2.96128 
34 2 5.65456 9.69653 1.07929 
35 2 6.88327 11.9266 1.03165 
36 2 5.62397 11.1468 2.9571 
64 2 0.70087 9.86317 5.04806 
65 2 1.91515 12.0645 5.05757 
67 2 3.24592 9.70577 5.07652 
68 2 4.42917 11.9697 5.00578 
70 2 5.79215 9.84137 5.184 
71 2 6.88035 12.0929 5.02505 
37 2 1.82381 0.314898 7.16664 
38 2 4.40023 0.199945 6.99968 
39 2 6.91624 0.243712 7.20388 
43 2 0.688811 2.50114 7.17343 
47 2 3.14545 2.44893 7.20542 
51 2 5.8248 2.35029 7.07054 
73 2 1.8397 0.252669 11.1008 
74 2 4.20836 0.154337 11.1955 
75 2 6.70223 0.27 11.3094 
76 2 0.66237 1.01226 9.18141 
77 2 1.91482 3.44873 9.22511 
79 2 0.602657 2.47943 11.1769 
80 2 3.2175 1.07018 9.12127 
81 2 4.3209 3.30032 9.13787 
83 2 2.96664 2.50051 11.1664 
84 2 5.64741 1.0215 9.19074 
85 2 6.78189 3.19686 9.21469 
87 2 5.45673 2.35204 11.2848 
42 2 1.9164 4.6664 7.10606 
46 2 4.49173 4.58719 7.07998 
50 2 6.89141 4.60842 7.10126 
55 2 0.583464 6.87935 7.19852 
59 2 3.114 6.76393 7.2305 
63 2 5.64606 6.83251 7.0665 
78 2 1.66179 4.7447 11.3825 
82 2 4.26137 4.70534 11.1756 
86 2 6.74585 4.48393 11.282 
88 2 0.474259 5.36946 9.24982 
89 2 1.86163 7.6693 9.31887 
91 2 0.669373 6.90665 11.3765 
92 2 2.93179 5.55887 9.22852 
93 2 4.56643 7.71146 9.12705 
95 2 3.15722 6.92511 11.1948 
96 2 5.5058 5.43901 9.19227 
97 2 6.92014 7.64209 9.29977 
99 2 5.69012 6.85947 11.2462 
54 2 1.9312 9.01226 7.26549 
58 2 4.47379 8.99683 7.1128 
62 2 6.88308 8.99982 7.23362 
66 2 0.611848 11.1832 7.1779 
69 2 3.12505 11.2965 6.99056 
72 2 5.66851 11.3483 7.17499 
90 2 1.85921 9.10317 11.3972 
94 2 4.46237 9.06805 11.3354 
98 2 6.97359 9.19344 11.2272 
100 2 0.859502 9.86403 9.29301 
101 2 2.00883 11.9719 9.18559 
102 2 0.478173 11.3936 11.2305 
103 2 3.21648 9.69394 9.11902 
104 2 4.28431 11.9589 9.16955 
105 2 3.09732 11.1648 11.2237 
106 2 5.5252 9.81402 9.16434 
107 2 6.74224 11.9449 9.17847 
108 2 5.63436 11.1108 11.2391 
ITEM: TIMESTEP
6000
ITEM: NUMBER OF ATOMS
108
ITEM: BOX BOUNDS pp pp pp
-2.6157038245483044e-02 7.5261570382455094e+00
-9.7394302674016678e-02 1.3087775359440579e+01
-1.9827590563413846e-02 1.2267276304479328e+01
ITEM: ATOMS id type x y z 
1 2 1.95971 0.13693 2.93719 
2 2 4.50994 0.236638 3.14146 
3 2 6.92939 0.164934 3.08037 
4 2 0.646199 0.97979 0.981323 
5 2 1.91205 3.24913 1.07583 
7 2 0.694198 2.37556 3.08682 
8 2 3.09421 1.03127 1.03595 
9 2 4.45482 3.21841 0.913707 
11 2 3.15807 2.47774 3.09696 
12 2 5.58546 0.998494 1.13029 
13 2 6.94334 3.17441 0.896666 
15 2 5.71104 2.46293 2.99283 
40 2 0.62133 0.891805 4.97037 
41 2 1.88666 3.16422 5.11297 
44 2 3.28871 0.998822 5.03381 
45 2 4.55203 3.17403 5.08602 
48 2 5.79863 1.11033 5.05451 
49 2 6.97456 3.33407 5.08948 
6 2 1.72959 4.69827 3.21414 
10 2 4.42568 4.61997 2.98872 
14 2 6.88679 4.74143 3.01734 
16 2 0.671718 5.28892 1.06747 
17 2 1.8136 7.66336 0.94268 
19 2 0.580608 6.859 3.05177 
20 2 3.10963 5.38335 0.985994 
21 2 4.18561 7.65964 1.07039 
23 2 3.06295 6.83115 3.03823 
24 2 5.66701 5.38901 0.90238 
25 2 6.80019 7.59242 0.887037 
27 2 5.62693 6.87533 2.94541 
52 2 0.672058 5.48324 5.14156 
53 2 1.90116 7.60384 5.04702 
56 2 3.15798 5.36957 5.04543 
57 2 4.34152 7.63307 5.02858 
60 2 5.70492 5.41563 5.05024 
61 2 6.93857 7.59996 4.95788 
18 2 1.93265 8.99047 3.05417 
22 2 4.47529 9.00451 3.04605 
26 2 6.89116 8.98063 3.03117 
28 2 0.459461 9.85231 0.895774 
29 2 1.77141 11.9777 0.890059 
30 2 0.647429 11.1699 2.91527 
31 2 2.91693 9.86829 1.06623 
32 2 4.30314 12.0608 0.955162 
33 2 3.20406 11.2374 3.04592 
34 2 5.47541 9.80746 1.02927 
35 2 6.69663 12.0086 1.00981 
36 2 5.61221 11.2127 3.1232 
64 2 0.829295 9.80025 5.13292 
65 2 1.94631 11.9544 5.03988 
67 2 3.23248 9.84371 5.28647 
68 2 4.37201 11.9528 5.29417 
70 2 5.78432 9.76734 5.30167 
71 2 6.79218 11.8775 5.06473 
37 2 1.92423 0.323096 7.00511 
38 2 4.40956 0.277032 7.23729 
39 2 7.0954 0.183536 7.11006 
43 2 0.651225 2.46681 7.17368 
47 2 3.27885 2.57954 7.04616 
51 2 5.76649 2.39268 7.22446 
73 2 1.88609 0.276207 11.1758 
74 2 4.27169 0.222567 11.3031 
75 2 6.84661 0.270184 11.2298 
76 2 0.654868 1.03927 9.15295 
77 2 2.0174 3.31699 9.07275 
79 2 0.540547 2.42339 11.163 
80 2 3.14163 1.13641 9.16498 
81 2 4.43142 3.27086 9.23351 
83 2 2.95141 2.45353 11.3233 
84 2 5.58572 1.07322 9.28483 
85 2 7.00113 3.12237 9.25934 
87 2 5.55769 2.47867 11.3679 
42 2 1.9417 4.82317 7.00098 
46 2 4.43223 4.74077 7.17077 
50 2 6.95661 4.62418 7.18438 
55 2 0.59199 6.85123 7.18235 
59 2 3.31508 6.85373 7.09061 
63 2 5.79294 6.92892 6.99546 
78 2 1.89072 4.5494 11.2066 
82 2 4.28358 4.67436 11.2606 
86 2 6.79607 4.55324 11.1094 
88 2 0.669895 5.36468 9.12554 
89 2 1.86969 7.44179 9.2015 
91 2 0.577368 6.654 11.2008 
92 2 3.22099 5.4187 9.22482 
93 2 4.24989 7.65986 9.27008 
95 2 3.07717 6.87587 11.3765 
96 2 5.64387 5.53153 9.09962 
97 2 6.92181 7.64795 9.30661 
99 2 5.54474 6.86428 11.2561 
54 2 1.86426 8.96871 7.14985 
58 2 4.47302 9.13775 7.29742 
62 2 6.86245 8.99252 7.21552 
66 2 0.611064 11.1829 7.09962 
69 2 3.05488 11.3077 7.28986 
72 2 5.66253 11.3156 7.11803 
90 2 1.75554 8.99636 11.1733 
94 2 4.24367 8.98128 11.3643 
98 2 6.85781 9.12719 11.3162 
100 2 0.607781 9.68229 9.16706 
101 2 1.59875 12.0583 9.16567 
102 2 0.406667 11.3651 11.2655 
103 2 2.97594 9.82757 9.24835 
104 2 4.13887 12.074 9.36905 
105 2 2.96255 11.1658 11.223 
106 2 5.61104 9.91042 9.33203 
107 2 6.73251 11.9915 9.25687 
108 2 5.45312 11.2227 11.2391 
ITEM: TIMESTEP
7000
ITEM: NUMBER OF ATOMS
108
ITEM: BOX BOUNDS pp pp pp
-1.7684391915063550e-02 7.5176843919151013e+00
-7.8870147145987501e-02 1.3069251203912545e+01
-3.6743951446698737e-02 1.2284192665362589e+01
ITEM: ATOMS id type x y z 
1 2 1.95059 0.381256 3.1128 
2 2 4.45413 0.224282 2.95647 
3 2 6.85488 0.238728 3.06598 
4 2 0.436826 1.1089 0.928404 
5 2 1.84962 3.19606 0.960772 
7 2 0.711279 2.46508 3.00064 
8 2 3.04329 0.990466 1.03591 
9 2 4.28739 3.15311 0.861625 
11 2 3.17962 2.42573 3.08174 
12 2 5.52659 0.924977 0.80822 
13 2 6.72502 3.26834 0.999008 
15 2 5.66749 2.38924 3.07525 
40 2 0.674325 0.940777 5.11934 
41 2 1.85688 3.28256 5.05119 
44 2 3.23705 0.984529 5.11113 
45 2 4.42655 3.27803 5.09102 
48 2 5.61914 0.879829 5.07825 
49 2 6.96824 3.33177 5.08681 
6 2 1.9422 4.67397 3.05013 
10 2 4.52443 4.58837 2.85626 
14 2 6.86496 4.66193 3.10911 
16 2 0.672551 5.30645 0.992641 
17 2 1.82297 7.51539 1.00853 
19 2 0.514371 6.79266 2.87182 
20 2 3.12008 5.42305 0.961006 
21 2 4.32867 7.44984 0.916454 
23 2 3.23339 6.63916 3.10681 
24 2 5.6553 5.43247 0.89355 
25 2 6.8827 7.58247 1.02137 
27 2 5.58869 6.83891 3.09108 
52 2 0.692367 5.49996 5.03843 
53 2 1.97783 7.6111 5.07207 
56 2 3.06112 5.42271 5.20503 
57 2 4.41962 7.76479 5.15562 
60 2 5.538 5.4538 5.03633 
61 2 6.92753 7.59093 4.95802 
18 2 1.8219 8.92529 3.23517 
22 2 4.44481 8.92601 3.02626 
26 2 6.89167 9.02608 3.01688 
28 2 0.438705 9.7516 1.02073 
29 2 1.96206 11.7466 1.05121 
30 2 0.591434 11.2872 3.04514 
31 2 2.99565 9.58953 1.26287 
32 2 4.265 11.9903 1.0319 
33 2 3.15107 11.2141 3.19246 
34 2 5.48383 9.74277 1.00775 
35 2 6.80728 11.9828 1.00038 
36 2 5.60061 11.2335 3.12121 
64 2 0.736915 9.81537 5.09452 
65 2 1.87997 11.9824 5.15832 
67 2 3.29507 9.8499 5.06607 
68 2 4.39099 12.1182 5.14674 
70 2 5.77459 9.87037 5.13591 
71 2 6.99357 11.9749 5.07691 
37 2 2.0299 0.326479 7.21956 
38 2 4.48575 0.244427 7.2537 
39 2 7.02284 0.230537 7.17674 
43 2 0.616656 2.41448 7.17413 
47 2 3.14683 2.54609 7.10806 
51 2 5.67406 2.45592 7.1042 
73 2 1.85054 0.16859 11.4101 
74 2 4.42894 0.300995 11.143 
75 2 6.90217 0.407936 11.2291 
76 2 0.559312 1.10996 9.28157 
77 2 1.84024 3.30037 9.26678 
79 2 0.583102 2.60522 11.274 
80 2 3.20886 1.10764 9.19576 
81 2 4.39851 3.18938 9.18332 
83 2 3.14907 2.55959 11.2747 
84 2 5.6576 1.02713 9.18833 
85 2 6.88461 3.20302 9.22477 
87 2 5.68859 2.47632 11.2149 
42 2 1.87527 4.65915 7.29895 
46 2 4.42168 4.70236 7.1751 
50 2 7.01325 4.72095 6.99863 
55 2 0.573721 6.85104 7.13946 
59 2 3.23981 6.73511 7.12445 
63 2 5.74143 6.8356 7.13395 
78 2 1.79967 4.67355 11.2008 
82 2 4.38359 4.71915 11.2605 
86 2 6.80776 4.74999 11.1747 
88 2 0.547183 5.4431 9.25337 
89 2 1.87001 7.55832 9.1135 
91 2 0.535501 6.79038 11.2392 
92 2 3.15828 5.38798 9.30557 
93 2 4.29499 7.65658 9.19023 
95 2 3.08016 6.9597 11.2761 
96 2 5.65561 5.40513 9.11202 
97 2 6.88524 7.60179 9.09318 
99 2 5.62197 6.97391 11.1531 
54 2 1.87073 9.09161 6.99641 
58 2 4.38769 9.16491 7.20896 
62 2 6.9111 9.06624 7.09157 
66 2 0.530954 11.2526 7.1149 
69 2 3.08749 11.2752 7.12763 
72 2 5.64899 11.2498 7.04344 
90 2 1.88481 9.01272 11.3539 
94 2 4.3347 9.16032 11.3737 
98 2 6.80178 9.11209 11.2238 
100 2 0.650363 9.66874 9.18837 
101 2 1.72742 11.9924 9.2408 
102 2 0.506242 11.2008 11.2917 
103 2 2.90437 9.78818 9.22787 
104 2 4.17163 11.7698 9.1653 
105 2 3.12176 11.2514 11.354 
106 2 5.62481 9.83218 9.1802 
107 2 6.81069 11.9995 9.28925 
108 2 5.63094 11.3113 11.2658 
ITEM: TIMESTEP
8000
ITEM: NUMBER OF ATOMS
108
ITEM: BOX BOUNDS pp pp pp
-1.8384353324831799e-02 7.5183843533248789e+00
-6.9605132261828864e-02 1.3059986189028370e+01
7.5126852790023827e-03 1.2239936028636897e+01
ITEM: ATOMS id type x y z 
1 2 1.91665 0.430347 3.14269 
2 2 4.5295 0.334019 3.01767 
3 2 7.01848 0.176479 3.12839 
4 2 0.645865 0.983218 1.06893 
5 2 1.86749 3.15882 0.971861 
7 2 0.637964 2.57659 2.96924 
8 2 3.08328 0.773454 0.994798 
9 2 4.33579 3.21355 0.993607 
11 2 3.13376 2.52374 2.97186 
12 2 5.73673 1.05165 1.05691 
13 2 6.88642 3.11708 1.00951 
15 2 5.67409 2.55098 3.10682 
40 2 0.734998 1.01371 5.17636 
41 2 1.89501 3.29803 5.0293 
44 2 3.2368 0.971132 5.07878 
45 2 4.29739 3.19292 5.02771 
48 2 5.69259 1.03022 5.16089 
49 2 6.98395 3.08781 5.11638 
6 2 1.89982 4.61027 2.9758 
10 2 4.46229 4.68626 3.04298 
14 2 6.84759 4.72576 3.15069 
16 2 0.725869 5.33232 0.947232 
17 2 1.85108 7.51831 1.02845 
19 2 0.501783 6.90962 3.0018 
20 2 3.07382 5.37474 1.09022 
21 2 4.24683 7.46822 1.01634 
23 2 3.00509 6.9047 3.07594 
24 2 5.68357 5.46051 1.14928 
25 2 6.98188 7.6376 1.10793 
27 2 5.52761 6.91601 3.10687 
52 2 0.628809 5.49103 4.949 
53 2 1.80905 7.67771 5.14694 
56 2 3.11929 5.37457 5.12354 
57 2 4.34396 7.64244 5.13916 
60 2 5.67229 5.15288 5.10946 
61 2 6.87829 7.50224 5.11203 
18 2 1.89845 9.06493 3.06882 
22 2 4.28455 9.02072 3.00472 
26 2 6.80348 9.06295 3.03756 
28 2 0.610246 9.79222 1.06543 
29 2 1.90003 11.8645 1.076 
30 2 0.607476 11.2579 3.22377 
31 2 3.10821 9.69724 0.865915 
32 2 4.40106 11.9379 0.983054 
33 2 3.11207 11.1497 2.98142 
34 2 5.63135 9.83449 1.15854 
35 2 6.89922 12.0012 1.0728 
36 2 5.6097 11.2787 3.01575 
64 2 0.577197 9.72213 5.10816 
65 2 1.96525 11.9717 5.12316 
67 2 3.01149 9.7268 5.09739 
68 2 4.4368 11.9726 5.10274 
70 2 5.54307 9.81677 5.13241 
71 2 6.91412 11.9012 5.11521 
37 2 2.00315 0.342193 7.10866 
38 2 4.50839 0.247276 7.21094 
39 2 6.98172 0.216711 7.06564 
43 2 0.574098 2.46284 7.07768 
47 2 3.13018 2.51159 7.12831 
51 2 5.655 2.58509 7.07829 
73 2 1.81322 0.159536 11.235 
74 2 4.40071 0.243729 11.1439 
75 2 6.8765 0.275889 11.2828 
76 2 0.571519 1.07264 9.11165 
77 2 1.89026 3.2216 9.14651 
79 2 0.459513 2.49051 11.3112 
80 2 3.23088 1.09709 9.25068 
81 2 4.32743 3.31833 9.15061 
83 2 2.96262 2.37075 11.1773 
84 2 5.69798 1.00968 9.19274 
85 2 6.79235 3.25685 9.16487 
87 2 5.51627 2.42253 11.21 
42 2 1.82756 4.67567 7.1996 
46 2 4.36027 4.55732 7.11849 
50 2 6.86132 4.74696 7.16977 
55 2 0.615396 6.85125 7.09331 
59 2 3.08708 6.89526 7.06495 
63 2 5.6294 6.83433 7.27885 
78 2 1.83011 4.66446 11.0597 
82 2 4.25003 4.61502 11.2545 
86 2 6.81768 4.61261 11.2712 
88 2 0.467398 5.37203 9.16995 
89 2 1.85896 7.57992 9.07767 
91 2 0.548416 6.78069 11.2807 
92 2 3.06155 5.41455 9.0025 
93 2 4.28073 7.6842 9.32219 
95 2 2.97586 6.9004 11.1522 
96 2 5.53544 5.38971 9.2733 
97 2 6.99874 7.60355 9.17068 
99 2 5.62719 6.88005 11.2113 
54 2 1.87802 9.11906 7.26054 
58 2 4.44438 9.01739 7.15313 
62 2 6.88687 9.0257 7.12301 
66 2 0.670064 11.2722 7.23242 
69 2 3.27327 11.2144 7.0895 
72 2 5.81485 11.2247 7.216 
90 2 1.85185 9.03011 11.0984 
94 2 4.44285 9.16636 11.2561 
98 2 6.82757 9.12422 11.2371 
100 2 0.515844 9.84594 9.22019 
101 2 1.99297 12.0923 9.16793 
102 2 0.620028 11.1641 11.2603 
103 2 3.02503 9.9263 9.31518 
104 2 4.45358 12.0141 9.1827 
105 2 3.18167 11.3756 11.2325 
106 2 5.6465 9.81403 9.15207 
107 2 6.89836 12.0319 9.20311 
108 2 5.67196 11.3283 11.2163 
ITEM: TIMESTEP
9000
ITEM: NUMBER OF ATOMS
108
ITEM: BOX BOUNDS pp pp pp
-5.8995768024497838e-02 7.5589957680245172e+00
-7.6877906951989441e-02 1.3067258963718558e+01
-3.0038459549060703e-02 1.2277487173464971e+01
ITEM: ATOMS id type x y z 
1 2 1.78019 0.295749 3.06273 
2 2 4.39542 0.240277 3.20885 
3 2 6.90352 0.255605 2.97897 
4 2 0.498482 1.07965 1.06338 
5 2 1.95012 3.13107 0.977202 
7 2 0.625453 2.54313 3.09218 
8 2 2.99906 0.952122 0.969884 
9 2 4.35365 3.29501 0.930583 
11 2 3.15642 2.42386 2.97863 
12 2 5.42595 1.01016 1.01911 
13 2 6.97302 3.17729 0.927876 
15 2 5.74712 2.5723 3.01051 
40 2 0.529271 1.03578 5.08493 
41 2 1.90753 3.1799 5.03371 
44 2 3.09124 0.950251 5.19851 
45 2 4.49211 3.16888 5.11715 
48 2 5.74392 1.10757 5.05757 
49 2 6.92226 3.17276 5.10809 
6 2 1.89924 4.52932 2.95118 
10 2 4.32115 4.57423 3.03643 
14 2 6.9797 4.53445 2.98088 
16 2 0.622666 5.36833 1.03266 
17 2 1.78805 7.66641 1.0071 
19 2 0.6557 6.77818 2.94838 
20 2 3.00138 5.36983 0.911137 
21 2 4.46626 7.6751 1.14128 
23 2 3.11656 6.89325 3.0569 
24 2 5.6314 5.38432 0.940744 
25 2 6.95709 7.53153 0.947925 
27 2 5.78615 6.77652 2.92643 
52 3 0.665589 5.49135 5.15588 
53 2 1.88542 7.71317 5.02532 
56 2 3.17913 5.38499 5.08556 
57 2 4.30196 7.49442 4.98569 
60 2 5.64933 5.35122 5.12893 
61 2 6.97115 7.64106 5.14919 
18 2 1.76685 9.05568 3.06209 
22 2 4.3285 9.0298 3.20049 
26 2 6.9768 9.01361 2.95727 
28 2 0.559791 9.70419 1.04486 
29 2 1.86544 11.9643 1.1191 
30 2 0.571801 11.1354 3.09734 
31 2 3.1746 9.78071 1.03245 
32 2 4.46549 11.9419 0.899877 
33 2 3.20615 11.1557 3.00621 
34 2 5.68359 9.83153 1.00627 
35 2 6.85939 11.9303 0.961087 
36 2 5.73116 11.1428 2.97586 
64 2 0.660649 9.86509 5.15207 
65 2 1.93959 11.9221 5.17314 
67 2 3.04278 9.86419 5.22793 
68 2 4.43927 11.9147 5.11654 
70 2 5.73097 9.78568 5.05063 
71 2 7.07119 11.9178 5.08411 
37 2 1.79721 0.307237 7.10749 
38 2 4.40174 0.301789 7.07212 
39 2 6.87748 0.367342 7.15854 
43 2 0.61746 2.57797 7.05579 
47 2 3.05029 2.55959 7.10179 
51 2 5.59688 2.43465 7.21266 
73 2 1.73624 0.27356 11.1426 
74 2 4.26856 0.276772 11.3111 
75 2 6.75945 0.386381 11.2931 
76 2 0.446902 1.11498 9.11837 
77 2 1.83418 3.15804 9.14611 
79 2 0.507835 2.45732 11.2263 
80 2 3.04035 0.952222 9.09636 
81 2 4.36242 3.22001 9.12059 
83 2 2.90989 2.42906 11.2842 
84 2 5.46777 0.983845 9.1662 
85 2 6.86468 3.30449 9.19761 
87 2 5.41785 2.49771 11.2801 
42 2 1.90653 4.73591 7.16702 
46 2 4.36469 4.64513 7.14703 
50 2 7.04065 4.63847 7.21981 
55 2 0.662104 6.88508 7.12769 
59 2 3.13249 7.06886 7.21198 
63 2 5.71748 6.76291 7.14908 
78 2 1.8754 4.64366 11.2039 
82 2 4.36212 4.65455 11.2236 
86 2 6.94428 4.73755 11.2108 
88 2 0.623472 5.46615 9.26364 
89 2 1.7589 7.52866 9.17138 
91 2 0.616191 6.81144 11.2866 
92 2 3.03988 5.3547 9.19081 
93 2 4.46634 7.54163 9.23482 
95 2 3.20881 6.89003 11.3179 
96 2 5.53672 5.45727 9.20299 
97 2 6.98702 7.6117 9.17022 
99 2 5.67886 6.95802 11.223 
54 2 1.91871 9.11714 7.34298 
58 2 4.47734 9.10313 7.02971 
62 2 6.85952 9.04291 7.09425 
66 2 0.50287 11.2781 7.21484 
69 2 2.98824 11.3521 7.17063 
72 2 5.61773 11.2969 7.13099 
90 2 1.91561 9.02166 11.2655 
94 2 4.40623 9.05562 11.2971 
98 2 6.98471 9.07379 11.2619 
100 2 0.67167 9.80342 9.3633 
101 2 1.92933 11.8395 9.2847 
102 2 0.527305 11.3299 11.3421 
103 2 3.20603 9.78704 9.28675 
104 2 4.43042 11.9427 9.18972 
105 2 3.06974 11.3191 11.3061 
106 2 5.65999 9.78084 9.1034 
107 2 6.85641 12.1009 9.23803 
108 2 5.65845 11.1347 11.2598 
ITEM: TIMESTEP
10000
ITEM: NUMBER OF ATOMS
108
ITEM: BOX BOUNDS pp pp pp
-5.1185790325553218e-02 7.5511857903255857e+00
-2.8798186727913448e-02 1.3019179243494461e+01
-5.1783169988904969e-02 1.2299231883904813e+01
ITEM: ATOMS id type x y z 
1 2 1.81608 0.405413 2.97688 
2 2 4.45977 0.27751 3.11051 
3 2 6.88398 0.281376 2.99498 
4 2 0.569936 1.04705 0.863588 
5 2 1.83891 3.21833 0.882163 
7 2 0.567089 2.51453 2.84666 
8 2 3.20137 0.934193 0.951773 
9 2 4.35725 3.29639 1.08483 
11 2 3.1758 2.52264 3.08128 
12 2 5.65427 1.01777 1.07805 
13 2 6.91695 3.1558 1.03887 
15 2 5.59824 2.53148 3.11548 
40 2 0.459593 0.998941 4.98237 
41 2 1.75838 3.11224 5.00875 
44 2 3.07966 1.09612 5.22426 
45 2 4.33773 3.08287 5.09408 
48 2 5.57993 1.07429 5.24753 
49 2 6.8193 3.19568 5.06793 
6 2 1.8343 4.6822 3.12785 
10 2 4.33142 4.727 3.01724 
14 2 7.02245 4.61426 3.03176 
16 2 0.501105 5.32422 1.05536 
17 2 1.63239 7.72181 1.02945 
19 2 0.693776 6.84248 3.03306 
20 2 3.00246 5.37258 0.91735 
21 2 4.24625 7.54647 1.07981 
23 2 3.17199 6.78421 2.97063 
24 2 5.70945 5.34775 0.967939 
25 2 6.84391 7.45885 0.92604 
27 2 5.69181 6.84389 3.06747 
52 2 0.671023 5.45542 5.17102 
53 2 1.98578 7.50603 5.1288 
56 2 3.19897 5.44117 5.10046 
57 2 4.44421 7.72388 5.13778 
60 2 5.80917 5.42229 5.1694 
61 2 6.99031 7.7254 5.04998 
18 2 1.79845 9.08827 3.18763 
22 2 4.5141 9.25219 3.06728 
26 2 6.93478 8.93569 3.01582 
28 2 0.399065 9.7401 1.07166 
29 2 1.84848 11.7453 0.961135 
30 2 0.367648 11.2799 2.9318 
31 2 3.01856 9.66953 1.05934 
32 2 4.46088 11.887 0.855853 
33 2 3.08366 11.2629 3.03637 
34 2 5.621 9.52508 0.786456 
35 2 6.85828 11.9792 0.806954 
36 2 5.68378 11.2086 2.86149 
64 2 0.564229 9.78081 5.11969 
65 2 1.90175 11.9645 5.095 
67 2 3.14346 9.83683 5.01777 
68 2 4.51523 11.9529 5.14744 
70 2 5.76531 9.70909 5.09405 
71 2 6.9555 11.7927 5.09608 
37 2 1.71952 0.398564 7.18813 
38 2 4.44792 0.436363 7.21477 
39 2 6.94968 0.291861 7.29486 
43 2 0.597643 2.49678 7.13754 
47 2 3.09638 2.51593 7.12216 
51 2 5.69486 2.51691 7.10867 
73 2 1.95107 0.337633 11.3366 
74 2 4.44284 0.317356 11.2243 
75 2 6.9183 0.390812 11.2786 
76 2 0.591 1.16697 9.26955 
77 2 1.88513 3.31889 9.27931 
79 2 0.578866 2.51496 11.24 
80 2 3.07978 1.04358 9.0922 
81 2 4.47441 3.19367 9.1894 
83 2 3.21229 2.49664 11.2043 
84 2 5.60732 1.11256 9.1457 
85 2 7.00469 3.34546 9.21452 
87 2 5.74406 2.58663 11.3228 
42 2 1.80194 4.6834 7.25069 
46 2 4.31603 4.65668 7.14789 
50 2 6.92123 4.6402 7.02304 
55 2 0.612793 6.83613 7.13815 
59 2 3.15856 6.80925 7.40452 
63 2 5.81938 6.87455 7.10011 
78 2 1.81526 4.63347 11.4273 
82 2 4.3428 4.68354 11.2296 
86 2 6.96207 4.7548 11.3689 
88 2 0.590717 5.3591 9.22041 
89 2 1.79155 7.74234 9.31778 
91 2 0.549803 6.83489 11.2762 
92 2 3.22863 5.36993 9.27429 
93 2 4.39268 7.70471 9.15729 
95 2 3.05797 6.85099 11.2143 
96 2 5.70359 5.36585 9.17189 
97 2 6.8186 7.4161 9.2003 
99 2 5.43822 6.99686 11.2192 
54 4 1.92772 8.96212 7.13434 
58 2 4.32311 8.99659 7.07085 
62 2 6.90086 9.05695 7.17869 
66 2 0.545058 11.1947 7.15165 
69 2 3.13393 11.2878 7.07739 
72 2 5.66342 11.1586 7.11912 
90 2 1.80156 9.12604 11.2577 
94 2 4.19452 9.00314 11.2738 
98 2 6.8365 9.09648 11.1141 
100 2 0.566317 9.8316 9.19541 
101 2 1.69198 12.016 9.17832 
102 2 0.597889 11.2236 11.3457 
103 2 3.14879 9.91748 9.13953 
104 2 4.49345 11.9755 9.27548 
105 2 3.15419 11.1284 11.2839 
106 3 5.50762 9.81818 9.24757 
107 2 6.92992 11.9171 9.27409 
108 2 5.63467 11.2292 11.2896 
ITEM: TIMESTEP
11000
ITEM: NUMBER OF ATOMS
108
ITEM: BOX BOUNDS pp pp pp
-7.5167825834344060e-02 7.5751678258343800e+00
-5.0622006668861692e-02 1.3041003063435413e+01
4.1127975395149185e-03 1.2243335916376399e+01
ITEM: ATOMS id type x y z 
1 2 1.76297 0.371204 2.95159 
2 2 4.3992 0.290575 2.99091 
3 2 6.98409 0.296174 3.2037 
4 2 0.571648 0.982665 0.962877 
5 2 1.90721 3.11264 0.995745 
7 2 0.546263 2.48683 3.1029 
8 2 3.24465 1.00956 1.02815 
9 2 4.29751 3.18824 1.01317 
11 2 3.1135 2.42041 3.02708 
12 2 5.77726 1.03087 1.08236 
13 2 6.99889 3.17075 1.04546 
15 2 5.61095 2.42071 3.03006 
40 2 0.583424 1.01247 5.13979 
41 2 1.8477 3.12655 5.14356 
44 2 3.15182 1.06109 5.03137 
45 2 4.36645 3.20821 4.97812 
48 2 5.71434 1.07629 5.13623 
49 2 6.92922 3.2297 5.04531 
6 2 1.71331 4.73014 3.07812 
10 2 4.44376 4.69714 3.07259 
14 2 6.9726 4.76669 2.97484 
16 2 0.663822 5.51146 0.993639 
17 2 1.74856 7.61545 0.989696 
19 1 0.556977 6.8197 3.05146 
20 2 3.05223 5.41693 1.06342 
21 2 4.28481 7.62813 0.956098 
23 2 3.07546 6.87226 3.06827 
24 2 5.65355 5.40112 1.05075 
25 2 6.79523 7.50307 1.13547 
27 2 5.60193 6.81816 3.10862 
52 2 0.506859 5.47119 5.06838 
53 2 1.79426 7.33732 5.06931 
56 2 3.08838 5.24499 5.07716 
57 2 4.34452 7.59756 5.19989 
60 2 5.72598 5.42589 5.13768 
61 2 6.85602 7.69426 4.93651 
18 2 1.7681 8.93646 2.99769 
22 2 4.40467 8.94741 2.94227 
26 2 6.98008 9.31348 3.13151 
28 2 0.515941 9.82417 1.05057 
29 2 1.88802 11.9231 1.00616 
30 2 0.692776 11.2866 3.24629 
31 2 2.99594 9.68692 1.07056 
32 2 4.43589 11.8211 0.96886 
33 2 3.21336 11.1414 2.93535 
34 2 5.54417 9.81502 1.08439 
35 2 6.97595 11.9271 1.16336 
36 2 5.7176 11.2385 3.24238 
64 2 0.512851 9.8492 5.05746 
65 2 1.83589 11.9891 5.10104 
67 2 3.02647 9.79747 4.98996 
68 2 4.32794 11.9327 5.01212 
70 2 5.56966 9.65849 5.20685 
71 2 6.94063 11.8038 5.23522 
37 2 1.97817 0.353368 7.12224 
38 2 4.38915 0.445573 7.21751 
39 2 6.88839 0.458064 7.05359 
43 2 0.676961 2.50543 7.18973 
47 2 3.19084 2.56536 7.06569 
51 2 5.77518 2.60747 7.15673 
73 2 1.76831 0.302865 11.1225 
74 2 4.30949 0.337403 11.2655 
75 2 6.92511 0.0930103 11.386 
76 2 0.596373 1.06185 9.17346 
77 2 2.01888 3.30499 9.0695 
79 2 0.631992 2.52879 11.163 
80 2 3.08139 1.03425 9.11496 
81 2 4.45298 3.18294 9.19704 
83 2 3.0749 2.55247 11.2206 
84 2 5.68827 1.11712 9.26193 
85 2 7.02637 3.26168 9.15502 
87 2 5.79682 2.31237 11.2794 
42 2 1.86172 4.67647 7.10107 
46 2 4.44345 4.70332 7.09107 
50 2 7.06505 4.72329 7.08713 
55 2 0.530171 6.88288 7.05359 
59 2 3.08326 6.82101 7.19395 
63 2 5.6601 6.82523 7.21062 
78 2 1.90855 4.69459 11.2032 
82 2 4.38121 4.65277 11.2301 
86 2 6.88159 4.66886 11.2963 
88 2 0.65758 5.41866 9.13101 
89 2 1.75315 7.62021 9.23071 
91 2 0.581852 6.82579 11.1839 
92 2 3.26357 5.43771 9.24175 
93 2 4.41641 7.54979 9.22297 
95 2 2.9823 6.90485 11.271 
96 2 5.69356 5.32802 9.15979 
97 3 6.82738 7.57247 9.22495 
99 2 5.52737 6.91529 11.252 
54 4 1.82635 9.02595 7.04857 
58 2 4.42726 9.20739 7.2199 
62 2 6.92761 9.05995 7.17415 
66 2 0.586865 11.2248 7.03515 
69 2 3.14264 11.262 7.09823 
72 2 5.5777 11.2723 7.11305 
90 2 1.83049 9.11868 11.2422 
94 2 4.24422 9.10287 11.2807 
98 2 6.81058 9.09078 11.2391 
100 2 0.425561 9.68016 9.24154 
101 2 1.67727 11.7327 9.03002 
102 2 0.494968 11.1571 11.301 
103 2 3.15984 9.71896 9.2531 
104 2 4.22943 12.012 9.16272 
105 2 3.03467 11.311 11.1502 
106 3 5.5862 9.98006 9.2958 
107 2 6.83556 12.0764 9.11619 
108 2 5.74655 11.3392 11.3747 
ITEM: TIMESTEP
12000
ITEM: NUMBER OF ATOMS
108
ITEM: BOX BOUNDS pp pp pp
-5.8274233109926687e-02 7.5582742331099890e+00
-2.8498555204742163e-02 1.3018879611971276e+01
-9.0741652461173952e-02 1.2338190366377136e+01
ITEM: ATOMS id type x y z 
1 2 1.72674 0.34932 3.01406 
2 2 4.37387 0.403004 2.99892 
3 2 6.7714 0.174818 3.00563 
4 2 0.289037 1.08756 1.10747 
5 2 1.84227 3.04958 1.02307 
7 2 0.569607 2.51353 3.15443 
8 2 3.16426 0.992758 0.957601 
9 2 4.29038 3.15928 0.890477 
11 2 3.04438 2.57318 3.17666 
12 2 5.56342 1.01635 0.873815 
13 2 6.84908 3.33035 1.01461 
15 2 5.74655 2.41264 2.99411 
40 2 0.56603 0.999272 5.05816 
41 2 1.86058 3.22316 5.24105 
44 2 3.11701 1.00356 4.99574 
45 2 4.51665 3.21409 5.06133 
48 2 5.77435 1.05847 5.09758 
49 2 6.9054 3.30081 5.13935 
6 2 1.77324 4.67871 2.89248 
10 2 4.37602 4.60328 2.91086 
14 2 6.86047 4.67724 3.04671 
16 2 0.515219 5.38644 0.857404 
17 2 1.78433 7.52262 1.02904 
19 3 0.438727 6.89004 3.0381 
20 2 3.15169 5.3445 0.931202 
21 2 4.39636 7.55755 0.912783 
23 2 3.13781 6.76875 2.9352 
24 2 5.70289 5.35607 0.946776 
25 2 6.78892 7.56086 0.946789 
27 2 5.63821 6.78505 3.12322 
52 2 0.582628 5.28972 5.03539 
53 2 1.75622 7.43555 5.03693 
56 2 3.12064 5.33899 5.01815 
57 2 4.26618 7.62523 5.12272 
60 2 5.67773 5.40623 5.08357 
61 2 6.80652 7.65464 5.12229 
18 2 1.73667 8.98916 2.89922 
22 2 4.45664 9.04158 2.97495 
26 2 6.90638 9.12944 2.97748 
28 2 0.663939 9.71415 0.900344 
29 2 1.8191 12.0381 0.999925 
30 2 0.498981 11.2181 2.93822 
31 2 3.23065 9.77921 0.948284 
32 2 4.39198 11.891 0.957384 
33 2 3.01934 11.1232 2.9417 
34 2 5.72296 9.75303 0.904148 
35 2 6.92334 11.8104 0.868292 
36 2 5.5426 11.1415 3.01958 
64 2 0.61703 9.8305 5.01378 
65 2 1.85058 11.9688 5.04504 
67 2 3.13659 9.78429 4.93813 
68 2 4.33053 11.8929 5.07602 
70 2 5.7362 9.77604 5.06143 
71 2 6.75823 11.9213 5.19806 
37 2 1.90668 0.275859 7.13612 
38 2 4.42977 0.321093 7.13139 
39 2 6.96874 0.460771 7.07295 
43 2 0.678825 2.48801 7.19165 
47 2 3.26621 2.53651 7.16558 
51 2 5.67836 2.60402 7.22582 
73 2 1.69966 0.448996 11.3917 
74 2 4.38178 0.373353 11.3333 
75 2 6.81011 0.494758 11.3798 
76 2 0.457171 1.04014 9.23308 
77 2 1.817 3.31752 9.19198 
79 2 0.616926 2.61474 11.367 
80 2 3.03956 1.17148 9.23648 
81 2 4.34475 3.19161 9.27565 
83 2 3.06001 2.57023 11.2735 
84 2 5.66563 0.986322 9.13822 
85 3 6.87063 3.15419 9.17665 
87 2 5.6247 2.55904 11.2531 
42 2 1.85265 4.7082 7.2824 
46 2 4.30037 4.67805 7.14504 
50 2 7.0654 4.7153 7.21017 
55 2 0.60614 6.78944 7.04802 
59 2 3.15671 6.66004 7.12335 
63 2 5.59321 6.78506 7.09004 
78 2 1.8094 4.69274 11.2436 
82 2 4.42895 4.75018 11.4225 
86 2 6.76062 4.70146 11.1615 
88 2 0.509609 5.45541 9.26702 
89 2 1.77323 7.47274 9.22063 
91 2 0.653037 6.87114 11.2795 
92 2 3.00939 5.4493 9.37018 
93 2 4.42477 7.65416 9.23345 
95 2 3.17575 7.01668 11.2565 
96 2 5.51126 5.33345 9.13469 
97 3 6.91098 7.61079 9.19966 
99 2 5.83074 6.93141 11.2568 
54 4 1.89789 9.04975 7.05744 
58 2 4.47485 9.06593 7.22181 
62 2 6.86257 9.15788 7.17533 
66 2 0.615007 11.3346 7.1961 
69 2 3.18763 11.1779 7.22675 
72 2 5.7908 11.2286 7.09506 
90 2 1.95858 9.09964 11.4326 
94 2 4.56081 8.98884 11.3904 
98 2 7.10997 9.095 11.3254 
100 2 0.596405 9.69011 9.21704 
101 2 1.83166 12.0058 9.16849 
102 2 0.68727 11.2786 11.3038 
103 2 3.23554 9.70381 9.34964 
104 2 4.34649 11.8407 9.248 
105 2 3.03415 11.3756 11.4767 
106 2 5.75295 9.86462 9.24557 
107 2 6.86741 11.9301 9.25875 
108 2 5.54137 11.2859 11.3192 
ITEM: TIMESTEP
13000
ITEM: NUMBER OF ATOMS
108
ITEM: BOX BOUNDS pp pp pp
-8.8165709474670118e-02 7.5881657094747270e+00
-6.3839357930947194e-02 1.3054220414697449e+01
1.0232707731407534e-02 1.2237216006184495e+01
ITEM: ATOMS id type x y z 
1 2 1.79972 0.314044 3.00338 
2 2 4.337 0.40357 3.04364 
3 2 6.83748 0.133567 3.08504 
4 2 0.527926 1.08117 1.09681 
5 2 1.7752 3.17831 1.07944 
7 2 0.586754 2.55826 3.03347 
8 2 3.04963 0.965674 0.962149 
9 2 4.34943 3.19074 1.1837 
11 2 3.04775 2.49823 3.05066 
12 2 5.64696 1.0113 1.08876 
13 2 6.74729 3.21715 1.13524 
15 2 5.86419 2.37226 3.10139 
40 2 0.470446 1.07172 5.04137 
41 2 1.77705 3.1972 5.14043 
44 2 3.00823 0.929228 5.17473 
45 2 4.38185 3.09233 4.99983 
48 2 5.61902 0.819418 5.10504 
49 2 7.01146 3.16374 5.09201 
6 2 1.74636 4.66255 3.11082 
10 2 4.38598 4.75508 3.08579 
14 2 6.94985 4.73158 2.98767 
16 2 0.486091 5.27737 0.906028 
17 2 1.73117 7.59804 1.06748 
19 3 0.51345 6.81683 3.05867 
20 2 3.11721 5.44008 1.08086 
21 2 4.33992 7.5398 1.10483 
23 2 3.05434 6.90444 2.93593 
24 2 5.60612 5.44501 1.00782 
25 2 6.94223 7.60675 1.11266 
27 2 5.59915 6.89568 3.09899 
52 2 0.527689 5.34654 5.05037 
53 2 1.86882 7.56097 4.96568 
56 2 3.10854 5.29061 5.07118 
57 2 4.2874 7.56296 4.97419 
60 2 5.62991 5.29895 5.02701 
61 2 7.05466 7.60316 5.15676 
18 2 1.89735 9.17637 3.12215 
22 2 4.32922 9.18612 3.02825 
26 2 6.90155 9.02946 3.05424 
28 2 0.530998 9.65056 0.960872 
29 2 1.81984 11.9024 1.01354 
30 2 0.457949 11.2183 2.88179 
31 2 3.09867 9.75083 1.07499 
32 2 4.39149 11.9927 1.04499 
33 2 3.06833 11.4047 3.15387 
34 2 5.61178 9.6974 0.954901 
35 2 6.89183 11.9168 0.901546 
36 2 5.5861 11.2076 2.96495 
64 2 0.583062 9.78236 5.15269 
65 2 1.67119 11.8504 5.12032 
67 2 3.21356 9.84892 5.08904 
68 2 4.4281 11.9878 5.17732 
70 2 5.69841 9.72307 5.09682 
71 2 6.96155 11.9042 5.11419 
37 2 1.74947 0.4685 7.17367 
38 2 4.37457 0.395531 7.22697 
39 2 7.00281 0.313714 7.15726 
43 2 0.535181 2.58966 7.08483 
47 2 2.92401 2.56966 7.15684 
51 2 5.5786 2.4763 6.97815 
73 2 1.76468 0.286162 11.256 
74 2 4.40097 0.207684 11.1869 