ITEM: TIMESTEP
5000
ITEM: NUMBER OF ATOMS
108
ITEM: BOX BOUNDS pp pp pp
-3.6897574680380546e-02 1.0596897574680307e+01
-1.3386055128937929e-02 1.0573386055128973e+01
-2.2741242881821607e-02 1.0582741242881914e+01
ITEM: ATOMS id type x y z 
1 1 0.740474 0.76862 0.838371 
2 1 2.69862 2.58226 0.744837 
3 1 2.65099 0.845204 2.58976 
4 1 0.873125 2.46777 2.62206 
5 1 4.35952 0.767972 0.807763 
8 1 4.4114 2.53835 2.43858 
13 1 0.918935 4.34715 0.711422 
15 1 2.47342 4.22951 2.53553 
17 1 4.37773 4.32085 0.922676 
37 1 0.734657 0.898729 4.61054 
38 1 2.57858 2.60091 4.45832 
41 1 4.38086 0.916085 4.33684 
49 1 0.806999 4.27387 4.41523 
53 1 4.28379 4.36939 4.27636 
6 1 6.17242 2.74995 0.807734 
7 1 6.14701 0.903038 2.58243 
9 1 7.8675 0.937304 1.03458 
10 1 9.6796 2.59379 0.850051 
11 1 9.66539 0.917724 2.66275 
12 1 7.92516 2.66685 2.67436 
19 1 6.18964 4.44868 2.6034 
21 1 8.00677 4.46451 0.753828 
23 1 9.90379 4.31952 2.56957 
42 1 6.07583 2.67006 4.33637 
45 1 8.00807 0.888907 4.48241 
46 1 9.66217 2.56481 4.39754 
57 1 7.97588 4.40248 4.34118 
14 1 2.62725 6.19242 0.931756 
16 1 0.862411 6.07127 2.52214 
20 1 4.41855 6.17979 2.51262 
25 1 1.00142 7.97959 0.823158 
26 1 2.53697 9.67594 0.901288 
27 1 2.6009 8.02423 2.68713 
28 1 0.862116 9.79157 2.62298 
29 1 4.44113 7.86088 0.75041 
32 1 4.34026 9.62519 2.78296 
50 1 2.50638 6.11541 4.26815 
61 1 0.751475 8.0311 4.37256 
62 1 2.50142 9.80019 4.42085 
65 1 4.46694 7.88289 4.4261 
18 1 6.07516 6.19404 0.760162 
22 1 9.71777 6.19512 0.837724 
24 1 7.99849 6.18868 2.56979 
30 1 6.02208 9.69523 0.980527 
31 1 6.14105 7.82301 2.50319 
33 1 8.05794 7.96374 0.899204 
34 1 9.74306 9.63203 0.900085 
35 1 9.80068 7.93345 2.58254 
36 1 7.82365 9.62865 2.69091 
54 1 6.17324 6.10282 4.29909 
58 1 9.73569 6.0733 4.3325 
66 1 6.16079 9.82846 4.41421 
69 1 7.98919 7.83618 4.51041 
70 1 9.64308 9.73486 4.44449 
39 1 2.69004 0.806369 6.20066 
40 1 0.753525 2.69228 6.30003 
44 1 4.32609 2.64613 6.11452 
51 1 2.72474 4.54901 6.09363 
73 1 0.849995 1.02474 7.94489 
74 1 2.60951 2.69202 7.97969 
75 1 2.66277 0.869833 9.71596 
76 1 0.789594 2.63203 9.85737 
77 1 4.50107 0.939023 7.9069 
80 1 4.36765 2.57576 9.77819 
85 1 0.825345 4.41044 7.96746 
87 1 2.5585 4.4085 9.72502 
89 1 4.33065 4.42492 7.87988 
43 1 6.17931 0.953481 6.16951 
47 1 9.67869 0.771701 6.32133 
48 1 8.03667 2.5737 6.17299 
55 1 6.25148 4.34808 6.17138 
59 1 9.67993 4.41729 6.24291 
78 1 6.25198 2.70735 7.94864 
79 1 6.08435 0.861638 9.81626 
81 1 7.96396 0.916274 7.9717 
82 1 9.67767 2.6485 7.9982 
83 1 9.69399 0.838481 9.79009 
84 1 7.91109 2.57237 9.75433 
91 1 6.21583 4.46362 9.58555 
93 1 8.14915 4.44545 7.98496 
95 1 9.88435 4.32951 9.81318 
52 1 0.853097 6.14107 6.02577 
56 1 4.52934 6.0757 6.0786 
63 1 2.59236 7.93502 6.18641 
64 1 0.837387 9.74568 6.23433 
68 1 4.35956 9.74289 6.05255 
86 1 2.57063 6.10007 7.95845 
88 1 0.847285 6.19077 9.70255 
92 1 4.4431 6.20942 9.6402 
97 1 0.913918 7.96938 7.95479 
98 1 2.67077 9.77268 7.93517 
99 1 2.54909 7.9609 9.66518 
100 1 0.832967 9.6909 9.65743 
101 1 4.49255 7.91642 7.76141 
104 1 4.3205 9.59061 9.76371 
60 1 8.0181 6.03884 6.15373 
67 1 6.18809 7.95988 6.22573 
71 1 9.69563 7.97302 6.20403 
72 1 7.81486 9.74625 6.27477 
90 1 6.12387 6.07809 7.8554 
94 1 9.72983 6.23108 7.89447 
96 1 8.04443 6.22156 9.62588 
102 1 6.18283 9.80047 8.05137 
103 1 6.13452 7.8573 9.60474 
105 1 7.9325 7.96321 7.87352 
106 1 9.66867 9.67154 8.07124 
107 1 9.78507 7.93726 9.63612 
108 1 7.89368 9.68716 9.7958 
ITEM: TIMESTEP
6000
ITEM: NUMBER OF ATOMS
108
ITEM: BOX BOUNDS pp pp pp
-5.8162737436164014e-02 1.0618162737436071e+01
-3.6995393458959830e-02 1.0596995393458988e+01
-5.4440865677555045e-02 1.0614440865677649e+01
ITEM: ATOMS id type x y z 
1 4 0.851751 0.999479 0.890786 
2 1 2.66073 2.7534 0.85943 
3 1 2.66552 0.932814 2.59651 
4 1 0.89357 2.82371 2.70847 
5 1 4.50188 0.957751 0.845886 
8 1 4.47662 2.68486 2.71182 
13 1 0.814517 4.31458 0.817075 
15 1 2.67372 4.38853 2.71051 
17 1 4.3308 4.34527 0.732234 
37 1 0.831947 0.907795 4.4478 
38 1 2.66425 2.60411 4.48975 
41 1 4.51744 0.799738 4.45823 
49 1 0.924717 4.52605 4.48898 
53 1 4.46212 4.4475 4.37028 
6 1 6.1853 2.61864 0.744517 
7 1 6.25066 0.941166 2.50933 
9 1 8.03842 0.832868 0.769439 
10 1 9.6478 2.77104 0.852775 
11 1 9.63866 0.950717 2.70491 
12 1 7.96239 2.53817 2.59717 
19 1 6.16085 4.29982 2.58338 
21 1 7.86433 4.3998 0.84497 
23 1 9.76901 4.38707 2.72489 
42 1 6.23341 2.77451 4.54799 
45 1 7.89671 0.89031 4.47382 
46 1 9.73635 2.65643 4.54431 
57 1 7.97564 4.55507 4.40836 
14 1 2.64922 6.09536 0.824378 
16 1 0.883821 6.12089 2.55776 
20 1 4.4523 6.08686 2.73549 
25 1 0.766808 7.91703 0.865553 
26 1 2.65017 9.6793 0.954774 
27 1 2.58767 7.81819 2.58359 
28 1 0.959677 9.45766 2.65177 
29 1 4.49551 7.89848 0.870936 
32 1 4.31025 9.72585 2.65597 
50 1 2.678 6.17162 4.53436 
61 1 0.94738 7.78147 4.49417 
62 1 2.61286 9.68678 4.42121 
65 1 4.33519 8.02194 4.36878 
18 1 6.13414 6.01326 0.843005 
22 1 9.64344 6.06027 0.931727 
24 1 7.88306 6.16415 2.53789 
30 1 6.25518 9.80791 0.800305 
31 1 6.27155 7.97266 2.5101 
33 1 7.90324 7.86904 0.834161 
34 1 9.67382 9.76242 0.947734 
35 1 9.66307 7.89104 2.63787 
36 1 7.89334 9.71884 2.64853 
54 1 6.16497 6.14207 4.37622 
58 1 9.71647 6.24574 4.41206 
66 1 6.17942 9.67863 4.32605 
69 1 7.97378 7.99334 4.38728 
70 1 9.79759 9.60681 4.38168 
39 1 2.70159 0.803026 6.07688 
40 1 0.771345 2.62218 6.162 
44 1 4.4896 2.60383 6.18411 
51 1 2.70647 4.36308 6.13324 
73 1 0.687084 0.842559 7.86254 
74 1 2.58771 2.47895 7.88366 
75 1 2.70112 0.831621 9.70454 
76 1 0.889047 2.63173 9.59918 
77 1 4.42594 0.708905 7.86294 
80 1 4.40525 2.48945 9.5516 
85 1 0.868687 4.32689 7.94342 
87 1 2.72677 4.32231 9.50832 
89 1 4.39744 4.58592 7.82432 
43 1 6.20847 0.749786 6.24073 
47 1 9.54692 0.718057 6.13654 
48 1 7.93439 2.74067 6.25462 
55 1 6.12538 4.56157 6.15376 
59 1 9.90097 4.4077 6.22773 
78 1 6.02729 2.58667 7.88934 
79 1 6.17029 0.851473 9.5886 
81 1 7.8679 0.89623 7.8641 
82 1 9.66836 2.60625 7.91886 
83 1 9.73546 0.814018 9.71383 
84 1 7.85312 2.68094 9.70587 
91 1 6.15685 4.43247 9.61524 
93 1 7.86488 4.47957 7.87476 
95 1 9.61917 4.48958 9.64317 
52 1 0.790497 6.12542 6.30946 
56 1 4.39197 6.24822 6.09758 
63 1 2.71411 7.92773 6.1609 
64 1 0.727757 9.75801 6.09579 
68 1 4.32086 9.6152 6.09923 
86 1 2.67533 6.15401 7.94723 
88 3 0.783027 6.23866 9.71759 
92 1 4.48427 6.34505 9.71489 
97 1 0.781521 7.96424 7.87042 
98 1 2.39192 9.68945 7.95112 
99 1 2.5932 7.92578 9.73013 
100 1 0.783939 9.64628 9.82703 
101 1 4.32457 7.99108 7.85174 
104 1 4.30301 9.69555 9.88878 
60 1 7.90546 6.21622 6.20867 
67 1 6.08949 8.01211 6.10601 
71 1 9.68227 7.93221 6.23009 
72 1 7.964 9.72215 6.20665 
90 1 6.13347 6.27503 7.9563 
94 1 9.64857 6.23726 7.91988 
96 1 7.98756 6.15262 9.81406 
102 1 6.15521 9.63091 7.90945 
103 1 6.15653 7.81046 9.69918 
105 1 7.91114 7.91235 7.92082 
106 1 9.59158 9.59093 8.01072 
107 1 9.73235 7.94619 9.84294 
108 1 7.93524 9.57824 9.71248 
ITEM: TIMESTEP
7000
ITEM: NUMBER OF ATOMS
108
ITEM: BOX BOUNDS pp pp pp
-1.6561983192692052e-02 1.0576561983192599e+01
-2.9277754160040993e-03 1.0562927775416018e+01
-3.7219247861435302e-02 1.0597219247861512e+01
ITEM: ATOMS id type x y z 
1 4 0.784933 0.893501 0.811081 
2 1 2.5639 2.68617 0.774235 
3 1 2.62361 0.824754 2.57537 
4 1 0.908943 2.63699 2.62497 
5 1 4.24807 0.885332 0.663141 
8 1 4.41236 2.59515 2.60543 
13 1 0.842616 4.36237 1.02477 
15 1 2.70084 4.38869 2.59509 
17 1 4.40877 4.49662 0.928297 
37 1 0.937398 0.874833 4.34718 
38 1 2.58091 2.58164 4.28713 
41 1 4.40878 0.751138 4.36589 
49 1 0.987812 4.43352 4.38238 
53 1 4.43133 4.33713 4.21124 
6 1 6.07774 2.69065 0.744817 
7 1 6.19942 0.895531 2.48906 
9 1 7.91184 1.0108 0.866323 
10 1 9.72243 2.67226 0.846468 
11 1 9.60072 0.927362 2.5234 
12 1 7.91336 2.65055 2.57128 
19 1 6.2102 4.37136 2.63057 
21 1 7.89833 4.42659 0.801928 
23 1 9.78718 4.39209 2.67189 
42 1 6.08002 2.54007 4.44113 
45 1 8.015 0.884242 4.39663 
46 1 9.76204 2.62263 4.26528 
57 1 8.00321 4.37751 4.3504 
14 1 2.74346 6.13657 0.884956 
16 1 0.94801 6.30787 2.76269 
20 1 4.4636 6.21116 2.61075 
25 1 0.900954 7.91851 0.905331 
26 1 2.60894 9.80864 0.858735 
27 1 2.49289 8.07921 2.5753 
28 1 0.841857 9.67391 2.63155 
29 1 4.37715 7.97278 0.850072 
32 1 4.4308 9.64296 2.6791 
50 1 2.63607 6.29887 4.37341 
61 1 0.867156 8.01082 4.35428 
62 1 2.75049 9.55933 4.34396 
65 1 4.43613 7.86101 4.41272 
18 1 6.2177 6.09545 0.904188 
22 1 9.61291 6.23684 0.899746 
24 1 7.97675 6.22137 2.60321 
30 1 6.1733 9.81265 0.899382 
31 1 6.25713 7.95089 2.69011 
33 1 7.8864 7.90776 0.879289 
34 1 9.64965 9.65212 0.851087 
35 3 9.65017 7.96199 2.6425 
36 1 8.11235 9.77547 2.61655 
54 1 6.21334 6.09738 4.41706 
58 1 9.75229 6.18929 4.39022 
66 1 6.21988 9.69321 4.47838 
69 1 7.89855 7.92715 4.49328 
70 1 9.68738 9.77011 4.39715 
39 1 2.64953 0.964411 6.12733 
40 1 0.936853 2.72059 6.16619 
44 1 4.39564 2.71465 5.98678 
51 1 2.57543 4.37174 6.13037 
73 1 0.873336 0.861779 7.97906 
74 1 2.50482 2.7492 7.88162 
75 1 2.61811 0.921003 9.53269 
76 1 0.834949 2.6565 9.63714 
77 1 4.3845 1.12901 7.8806 
80 1 4.21994 2.63679 9.76541 
85 1 0.796453 4.55812 8.07885 
87 1 2.60793 4.39424 9.84213 
89 1 4.37857 4.19543 7.90782 
43 1 6.0894 0.856636 6.15772 
47 1 9.70726 0.905595 6.20799 
48 1 7.99675 2.565 6.07365 
55 1 6.31278 4.29044 6.14419 
59 1 9.72823 4.29135 6.21125 
78 1 6.25225 2.56767 7.86802 
79 1 6.0291 0.886542 9.80956 
81 1 7.85312 0.796764 7.81332 
82 1 9.80872 2.7076 7.97042 
83 1 9.57535 0.828773 9.61486 
84 1 7.83409 2.57861 9.72663 
91 1 6.04675 4.34466 9.66698 
93 1 8.00901 4.37561 7.96986 
95 1 9.76858 4.38851 9.79809 
52 1 0.813087 6.12603 6.18917 
56 1 4.40848 6.01117 6.25287 
63 1 2.59735 7.84552 6.17376 
64 1 0.873173 9.8065 6.21588 
68 1 4.28459 9.77339 6.19708 
86 1 2.6703 6.1268 7.97774 
88 1 0.873928 6.25806 9.96 
92 1 4.41211 6.18946 9.77161 
97 1 0.899241 7.78888 8.06432 
98 1 2.56215 9.64865 8.03513 
99 1 2.6314 7.80904 9.72983 
100 1 0.879014 9.57023 9.77512 
101 1 4.29943 7.92451 7.88299 
104 1 4.309 9.65136 9.67553 
60 1 7.89806 6.20213 6.20952 
67 1 6.11995 7.87767 6.32233 
71 1 9.67588 7.90576 6.1227 
72 1 8.05366 9.7377 6.20316 
90 1 6.06759 6.00071 7.99182 
94 1 9.62147 6.24909 8.07099 
96 1 7.84351 6.1741 9.61663 
102 1 6.08511 9.71618 8.01278 
103 1 6.08265 7.88399 9.70738 
105 1 7.95633 7.89222 7.939 
106 1 9.74732 9.63479 7.90348 
107 1 9.58576 7.86905 9.81345 
108 1 7.95842 9.78435 9.72731 
ITEM: TIMESTEP
8000
ITEM: NUMBER OF ATOMS
108
ITEM: BOX BOUNDS pp pp pp
-4.0066650905442383e-02 1.0600066650905408e+01
-2.3827974366889597e-02 1.0583827974366949e+01
-6.6662992981080971e-02 1.0626662992981165e+01
ITEM: ATOMS id type x y z 
1 4 0.890492 0.84533 0.756153 
2 1 2.72902 2.81249 0.794511 
3 1 2.6604 0.884798 2.58963 
4 1 0.778642 2.77506 2.65219 
5 1 4.40993 0.821596 0.777895 
8 1 4.38796 2.75445 2.62163 
13 1 0.760909 4.53761 0.735901 
15 1 2.48852 4.40662 2.62253 
17 1 4.46146 4.30902 0.792782 
37 1 0.909931 0.851869 4.39451 
38 1 2.53179 2.68441 4.44048 
41 1 4.40916 0.985843 4.40229 
49 1 0.734805 4.52436 4.43696 
53 1 4.40401 4.294 4.39228 
6 1 6.28873 2.58413 0.725123 
7 1 6.1228 0.83647 2.53829 
9 1 7.904 0.845491 0.823677 
10 1 9.75012 2.68891 0.858081 
11 1 9.68479 0.869095 2.71517 
12 1 7.97858 2.5032 2.55625 
19 1 6.292 4.42143 2.64767 
21 1 7.90165 4.44836 0.943673 
23 1 9.52572 4.57597 2.71377 
42 1 6.22566 2.5564 4.31264 
45 1 7.89008 0.871485 4.37436 
46 1 9.81365 2.62785 4.38378 
57 1 7.87416 4.36107 4.45862 
14 1 2.60608 6.14302 0.803537 
16 1 0.839017 6.13924 2.6323 
20 1 4.42046 6.0652 2.66517 
25 1 0.825998 7.98786 0.845973 
26 1 2.63075 9.63114 0.741801 
27 1 2.67768 7.83465 2.76805 
28 1 0.905508 9.69443 2.71259 
29 1 4.41076 7.85754 0.880504 
32 1 4.23278 9.72715 2.69346 
50 1 2.76068 6.03477 4.51638 
61 1 0.94499 7.88003 4.42808 
62 1 2.63792 9.76563 4.4547 
65 1 4.41587 8.02313 4.4319 
18 1 6.04909 6.03443 0.867864 
22 1 9.74572 6.28626 0.851717 
24 1 7.89746 6.27558 2.59509 
30 1 6.13242 9.63651 0.817952 
31 1 6.03465 8.01752 2.67078 
33 1 7.85546 7.81609 0.910196 
34 1 9.69913 9.64387 0.843566 
35 3 9.64645 8.01233 2.75828 
36 1 7.86643 9.67079 2.57866 
54 1 6.20572 6.19133 4.36559 
58 1 9.75198 6.22079 4.49814 
66 1 6.14152 9.8103 4.31086 
69 1 7.87692 7.95008 4.52039 
70 1 9.6317 9.63693 4.43453 
39 1 2.66761 0.884624 6.25447 
40 1 0.838766 2.66706 6.1608 
44 1 4.42412 2.64325 6.28315 
51 1 2.72292 4.32209 6.21092 
73 1 0.889789 0.85773 8.00924 
74 1 2.63122 2.54335 8.07934 
75 1 2.76417 0.843095 9.6892 
76 1 0.919063 2.80517 9.73189 
77 1 4.46404 0.768321 7.9192 
80 1 4.56881 2.64913 9.70092 
85 1 0.705451 4.35995 7.88752 
87 1 2.80467 4.47631 9.68207 
89 1 4.40017 4.472 7.94522 
43 1 6.21208 0.900303 6.19276 
47 1 9.60477 0.940078 6.26524 
48 1 7.88482 2.69364 6.09761 
55 1 6.19153 4.31702 6.21512 
59 1 9.64044 4.39051 6.22129 
78 1 6.14367 2.73101 7.95939 
79 1 6.0512 0.628308 9.66981 
81 1 7.78062 0.883774 7.98749 
82 1 9.71786 2.58757 7.94072 
83 1 9.69342 0.944058 9.7118 
84 1 7.89681 2.48927 9.68123 
91 1 6.26687 4.51718 9.67498 
93 1 7.88503 4.44711 8.02749 
95 1 9.54505 4.40154 9.64698 
52 1 0.862628 6.07528 6.20561 
56 1 4.46466 6.29729 6.20278 
63 1 2.70532 7.85077 6.14027 
64 1 0.775845 9.73311 6.19193 
68 1 4.40642 9.62773 6.07493 
86 1 2.58191 6.19549 7.89617 
88 1 0.826664 6.31679 9.52323 
92 1 4.31698 6.21712 9.72145 
97 1 0.878687 8.05841 7.89549 
98 1 2.66439 9.63978 7.8512 
99 1 2.51592 7.93233 9.70458 
100 1 0.855818 9.70073 9.57608 
101 1 4.43501 7.87006 7.96709 
104 1 4.38859 9.60912 9.72714 
60 1 7.96797 6.08402 6.1864 
67 1 6.38027 7.8768 6.07937 
71 1 9.76491 7.9471 6.29647 
72 1 7.98566 9.72739 6.26574 
90 1 6.19518 6.17456 7.87316 
94 1 9.63354 6.17212 7.91821 
96 1 7.91912 6.2841 9.86815 
102 1 6.13492 9.57753 7.85955 
103 1 5.99698 7.88844 9.748 
105 1 7.82811 7.93467 7.93798 
106 1 9.63043 9.71931 8.01781 
107 1 9.64741 7.89563 9.71857 
108 1 7.87125 9.63717 9.60069 
ITEM: TIMESTEP
9000
ITEM: NUMBER OF ATOMS
108
ITEM: BOX BOUNDS pp pp pp
-2.4699894946150599e-02 1.0584699894946102e+01
-3.5314642976433913e-02 1.0595314642976485e+01
-6.3282818379907180e-02 1.0623282818379955e+01
ITEM: ATOMS id type x y z 
1 4 0.77496 0.908577 0.815856 
2 1 2.59096 2.57995 0.779319 
3 1 2.78225 0.781616 2.64591 
4 1 0.93751 2.69566 2.72928 
5 1 4.40487 0.837885 0.923288 
8 1 4.31397 2.60008 2.68746 
13 1 0.881834 4.32308 0.851129 
15 1 2.62313 4.44274 2.64683 
17 1 4.21959 4.33062 0.701385 
37 1 0.94809 0.794547 4.30896 
38 1 2.63232 2.64698 4.43125 
41 1 4.51178 0.764633 4.29998 
49 1 0.868929 4.36601 4.47647 
53 1 4.45756 4.46843 4.35155 
6 1 6.05578 2.70483 0.984959 
7 1 6.17283 0.70574 2.65022 
9 1 7.94041 1.00115 0.954269 
10 1 9.70476 2.66341 0.732614 
11 1 9.59385 1.03124 2.67469 
12 1 7.84786 2.78144 2.54087 
19 1 6.01048 4.51142 2.6546 
21 1 7.85919 4.34166 0.764203 
23 1 9.7127 4.415 2.55812 
42 1 6.15543 2.58389 4.30299 
45 1 7.8321 0.821558 4.4127 
46 1 9.64763 2.67913 4.37863 
57 1 7.97779 4.48908 4.49013 
14 1 2.63731 6.25853 0.845253 
16 1 0.898874 5.98467 2.63912 
20 1 4.33376 6.30688 2.57986 
25 1 0.788811 7.90919 0.805368 
26 1 2.57742 9.82809 0.848158 
27 1 2.55734 7.9363 2.55247 
28 1 0.872823 9.73656 2.65813 
29 1 4.42051 8.00416 0.801336 
32 1 4.46884 9.57582 2.55446 
50 1 2.54198 6.2332 4.44814 
61 1 0.827489 8.1097 4.43493 
62 1 2.64949 9.7213 4.38616 
65 1 4.29492 7.94195 4.42225 
18 1 6.12386 6.1123 0.71766 
22 1 9.71608 6.16749 0.778507 
24 1 7.92203 6.169 2.52186 
30 1 6.2489 9.73033 0.785409 
31 1 6.17702 7.86165 2.5584 
33 1 7.90149 7.92058 0.841166 
34 1 9.74055 9.81342 0.832135 
35 4 9.68172 7.88555 2.59866 
36 1 8.01871 9.73698 2.53644 
54 1 5.99649 6.06805 4.40535 
58 1 9.64854 6.21699 4.42165 
66 1 6.15413 9.61652 4.28466 
69 1 7.70263 7.85368 4.40956 
70 1 9.72173 9.89571 4.34456 
39 1 2.67272 0.913952 6.16898 
40 1 0.889039 2.75945 6.13172 
44 1 4.52678 2.61979 6.20397 
51 1 2.74268 4.43907 6.25153 
73 1 0.916885 0.869055 7.88821 
74 1 2.65932 2.62585 7.80623 
75 1 2.55821 0.824626 9.60723 
76 1 0.860947 2.53038 9.61528 
77 1 4.35765 0.916929 8.00464 
80 1 4.39504 2.53772 9.77492 
85 1 0.918151 4.5095 8.03458 
87 1 2.6438 4.42467 9.6679 
89 1 4.45319 4.18746 7.99993 
43 1 6.13195 0.660839 6.23559 
47 1 9.83829 0.96825 6.23518 
48 1 7.86091 2.45907 6.15333 
55 1 6.22884 4.32228 6.21683 
59 1 9.65349 4.45609 6.22085 
78 1 6.18086 2.50843 8.01262 
79 1 6.21005 0.883109 9.85526 
81 1 7.91274 0.726703 7.96897 
82 1 9.72317 2.70308 7.91019 
83 1 9.71217 0.905035 9.64019 
84 1 7.94911 2.69212 9.752 
91 1 6.16393 4.29054 9.73302 
93 1 7.90567 4.39602 7.87336 
95 1 9.6589 4.41886 9.72884 
52 1 0.881986 6.08409 6.19078 
56 1 4.34521 6.08316 6.28328 
63 1 2.46001 8.00855 6.15924 
64 1 0.807106 9.79168 6.23863 
68 1 4.31712 9.68291 6.21777 
86 1 2.68901 6.13028 8.00188 
88 1 0.979497 6.18643 9.76727 
92 1 4.43107 6.10625 9.72742 
97 1 0.872858 7.98869 8.02005 
98 1 2.5485 9.71111 8.03385 
99 1 2.60375 7.96794 9.77233 
100 1 0.772886 9.76164 9.76991 
101 1 4.37758 7.92779 7.99946 
104 1 4.31146 9.73982 9.75506 
60 1 7.87772 6.30893 6.22862 
67 1 6.07491 8.02412 6.25824 
71 1 9.68683 7.8732 6.15524 
72 1 7.97459 9.69223 6.12484 
90 1 6.07899 6.11089 7.96059 
94 1 9.78179 6.20352 7.94782 
96 1 7.98397 6.10666 9.65267 
102 1 6.21804 9.75236 8.11713 
103 1 6.20372 7.98862 9.84826 
105 1 7.84186 7.95762 8.03566 
106 1 9.6985 9.64966 7.902 
107 1 9.72004 7.9339 9.77173 
108 1 8.07934 9.82372 9.80842 
ITEM: TIMESTEP
10000
ITEM: NUMBER OF ATOMS
108
ITEM: BOX BOUNDS pp pp pp
-8.2589326661305969e-03 1.0568258932666069e+01
-1.7437541209818424e-02 1.0577437541209926e+01
-3.3750421871274111e-02 1.0593750421871375e+01
ITEM: ATOMS id type x y z 
1 2 0.851564 0.944094 0.986424 
2 1 2.65434 2.67202 0.954362 
3 1 2.66057 0.879274 2.70607 
4 1 0.840948 2.76935 2.60891 
5 1 4.31863 1.0133 0.853493 
8 1 4.37867 2.59943 2.68501 
13 1 0.848004 4.37197 0.857321 
15 1 2.62689 4.45104 2.56028 
17 1 4.49742 4.2801 0.778655 
37 1 0.805535 1.01564 4.38456 
38 1 2.52725 2.68653 4.36715 
41 1 4.34774 0.925961 4.48268 
49 1 0.737095 4.35858 4.32354 
53 1 4.35895 4.32011 4.4093 
6 1 6.16163 2.57042 0.755075 
7 1 6.10045 0.895368 2.79014 
9 1 7.87092 0.84571 0.906507 
10 1 9.71696 2.63258 0.890888 
11 1 9.60478 0.767404 2.62933 
12 1 7.98729 2.56616 2.60576 
19 1 6.1731 4.31231 2.71485 
21 1 8.01313 4.31155 0.866567 
23 1 9.73595 4.42486 2.68191 
42 1 6.10044 2.66848 4.39971 
45 1 7.94699 0.840093 4.42807 
46 1 9.64559 2.64451 4.37796 
57 1 7.84137 4.34692 4.51332 
14 1 2.68155 6.19942 0.905904 
16 1 0.985647 6.11613 2.53146 
20 1 4.4442 6.06713 2.5098 
25 1 0.927163 8.04476 0.739734 
26 1 2.67843 9.74092 0.906045 
27 1 2.64516 7.9516 2.66897 
28 1 0.803431 9.6495 2.67771 
29 1 4.4153 7.93709 0.843676 
32 1 4.38121 9.7349 2.66921 
50 1 2.58921 6.22798 4.38182 
61 1 0.981035 7.94092 4.42635 
62 1 2.56263 9.72263 4.50184 
65 1 4.56636 7.98265 4.34056 
18 1 6.21044 6.28023 0.862516 
22 1 9.71958 6.15089 0.807187 
24 1 7.94046 5.98541 2.63166 
30 1 6.03268 9.82296 0.772327 
31 1 6.10951 8.00493 2.65964 
33 1 7.74128 8.10489 0.871601 
34 1 9.74276 9.72269 0.699311 
35 4 9.66728 7.93904 2.58506 
36 1 7.84167 9.78263 2.77747 
54 1 6.02048 6.12634 4.35593 
58 1 9.64648 6.09303 4.5323 
66 1 6.14565 9.70698 4.48046 
69 1 7.93186 7.92005 4.47197 
70 1 9.74782 9.74113 4.46935 
39 1 2.6013 0.809101 6.23989 
40 1 0.914314 2.71981 6.12837 
44 1 4.30535 2.63789 6.26383 
51 1 2.55232 4.50326 6.03036 
73 1 0.985799 0.871525 8.02507 
74 1 2.59611 2.7389 7.9249 
75 1 2.67016 0.865024 9.74985 
76 1 0.933769 2.54927 9.79122 
77 1 4.53544 0.772056 7.90405 
80 1 4.42251 2.61933 9.63991 
85 1 0.847723 4.46676 7.88838 
87 1 2.58872 4.54755 9.84169 
89 1 4.23017 4.45748 7.99166 
43 1 6.17351 0.884219 6.09825 
47 1 9.69276 0.960395 6.27345 
48 1 7.85238 2.74673 6.14251 
55 1 6.07863 4.52006 6.24639 
59 1 9.73491 4.27248 6.16354 
78 1 6.1566 2.78441 7.90645 
79 1 6.22179 0.858 9.50507 
81 1 7.89462 0.971722 7.81664 
82 1 9.7403 2.72744 7.93594 
83 1 9.61948 0.91078 9.71469 
84 1 7.93947 2.60646 9.69957 
91 1 6.21757 4.42123 9.69108 
93 1 7.93581 4.37116 7.96442 
95 1 9.65092 4.25271 9.66479 
52 1 0.892212 6.14747 6.17235 
56 1 4.26667 6.21373 6.18434 
63 1 2.67783 7.93028 6.18741 
64 1 0.909436 9.80868 6.18289 
68 1 4.42417 9.57321 6.19835 
86 1 2.50485 6.16686 7.99616 
88 1 0.723445 6.10113 9.71108 
92 1 4.44249 6.13364 9.89097 
97 1 0.849085 8.0413 7.97778 
98 1 2.59831 9.66229 8.06495 
99 1 2.6119 7.78308 9.66456 
100 1 0.922214 9.82909 9.75013 
101 1 4.46783 7.81932 7.98593 
104 1 4.39409 9.5925 9.73931 
60 1 7.92073 6.14366 6.12587 
67 1 6.22031 7.80379 6.13827 
71 1 9.74665 7.96813 6.1072 
72 1 7.97032 9.7157 6.2101 
90 1 6.15717 6.07328 7.99265 
94 1 9.58081 6.20267 7.95401 
96 1 7.92694 6.1281 9.76547 
102 1 6.21522 9.62145 7.86592 
103 1 6.26055 8.03177 9.79189 
105 1 7.83781 7.78028 7.93468 
106 1 9.71077 9.74357 7.9463 
107 1 9.62113 7.95364 9.632 
108 1 7.97918 9.72338 9.47901 
ITEM: TIMESTEP
11000
ITEM: NUMBER OF ATOMS
108
ITEM: BOX BOUNDS pp pp pp
-5.7972640120466067e-02 1.0617972640120415e+01
-4.3783220019398418e-02 1.0603783220019530e+01
-5.5481985720844007e-02 1.0615481985720917e+01
ITEM: ATOMS id type x y z 
1 1 0.92208 0.779559 0.71628 
2 1 2.64016 2.64277 0.935858 
3 1 2.79002 0.722124 2.51599 
4 1 0.839491 2.58736 2.63189 
5 1 4.55844 0.8383 0.895012 
8 1 4.38015 2.59177 2.55593 
13 1 0.782547 4.4226 0.704861 
15 1 2.49692 4.44053 2.59509 
17 1 4.29212 4.39527 0.818265 
37 1 0.913671 0.851097 4.4123 
38 1 2.61312 2.62078 4.52404 
41 1 4.48135 0.898062 4.39011 
49 1 0.776763 4.4936 4.37781 
53 1 4.23338 4.25563 4.46031 
6 1 6.14048 2.75017 0.822439 
7 1 6.1606 0.762576 2.65906 
9 1 7.96218 0.809716 0.85587 
10 1 9.78842 2.57795 0.709667 
11 1 9.76049 0.909933 2.60602 
12 1 7.93473 2.61607 2.55005 
19 1 6.05053 4.45126 2.69174 
21 1 7.85123 4.40878 0.872123 
23 1 9.63558 4.33468 2.48565 
42 1 6.10833 2.5863 4.39187 
45 1 7.94169 0.978244 4.29286 
46 1 9.78589 2.71679 4.4248 
57 1 7.99682 4.30135 4.26989 
14 1 2.62562 6.17369 0.845018 
16 1 0.800407 6.11343 2.57156 
20 1 4.22556 6.21794 2.63013 
25 1 0.821506 8.11774 1.06979 
26 1 2.66284 9.71179 0.880566 
27 1 2.58541 8.02594 2.71357 
28 1 0.854368 9.87842 2.59723 
29 1 4.3899 7.87973 0.869242 
32 1 4.38321 9.57776 2.5803 
50 1 2.64575 6.20311 4.603 
61 1 0.868397 7.9729 4.40847 
62 1 2.60093 9.76879 4.467 
65 1 4.42722 7.96155 4.50471 
18 1 6.02431 6.15625 0.84811 
22 1 9.73716 6.22198 0.81734 
24 1 7.95078 6.09895 2.57711 
30 1 6.23507 9.62609 0.907425 
31 1 6.30149 7.96148 2.7615 
33 1 7.89118 7.755 0.784767 
34 1 9.75117 9.74339 0.683547 
35 4 9.7315 8.09721 2.72941 
36 1 7.92018 9.80619 2.58724 
54 1 6.16701 6.15899 4.37879 
58 1 9.7004 6.08757 4.38834 
66 2 6.13089 9.75 4.41369 
69 1 7.84439 7.92908 4.4111 
70 1 9.5142 9.75378 4.47146 
39 1 2.626 0.840821 6.15749 
40 1 0.767793 2.46908 6.33211 
44 1 4.27233 2.59835 6.26218 
51 1 2.53139 4.4675 6.3028 
73 1 0.862204 0.87719 7.93374 
74 1 2.56624 2.64714 8.01475 
75 1 2.64197 0.810964 9.64003 
76 1 0.892478 2.5621 9.83753 
77 1 4.45123 1.02428 8.02318 
80 1 4.4462 2.62838 9.80136 
85 1 0.780554 4.48826 7.89883 
87 1 2.6459 4.3426 9.69879 
89 1 4.44687 4.24046 7.99376 
43 1 6.2801 0.920562 6.2663 
47 1 9.66651 0.810035 6.20243 
48 1 7.96069 2.61493 6.25493 
55 1 6.21345 4.36406 6.04749 
59 1 9.8267 4.40775 6.16925 
78 1 6.22561 2.57631 8.14594 
79 1 6.20483 0.825058 9.83565 
81 1 7.97503 0.676534 7.93961 
82 1 9.67241 2.64752 7.96936 
83 1 9.68101 0.923032 9.65542 
84 1 7.97449 2.66383 9.66487 
91 1 6.23751 4.53859 9.71588 
93 1 7.88889 4.4811 7.86577 
95 1 9.63055 4.4951 9.77319 
52 1 0.772741 6.31373 6.19502 
56 1 4.41319 6.14663 6.24772 
63 1 2.54188 7.91332 6.19731 
64 1 0.806599 9.67676 6.20384 
68 1 4.37325 9.87199 6.19056 
86 1 2.6091 6.261 7.96255 
88 1 0.956507 6.1995 9.9158 
92 1 4.25999 6.08332 9.68873 
97 1 0.860875 7.98133 8.02401 
98 1 2.58841 9.78066 7.92501 
99 1 2.61453 8.04271 9.7556 
100 1 0.84346 9.64768 9.76082 
101 1 4.34592 8.13001 7.94133 
104 1 4.5107 9.79185 9.80404 
60 1 7.91699 6.04389 6.09696 
67 1 6.12194 8.01262 6.16887 
71 1 9.61756 7.96706 6.12853 
72 1 7.78817 9.67469 6.16936 
90 1 6.1059 6.18234 7.80256 
94 1 9.74732 6.31018 7.99628 
96 1 7.94694 6.20146 9.5803 
102 1 6.16264 9.74411 7.99441 
103 1 6.18338 7.96619 9.69082 
105 1 7.99825 8.10432 7.91705 
106 1 9.74851 9.6544 7.89453 
107 1 9.72134 7.96066 9.706 
108 1 7.88818 9.62964 9.81212 
ITEM: TIMESTEP
12000
ITEM: NUMBER OF ATOMS
108
ITEM: BOX BOUNDS pp pp pp
-1.7210083447986139e-02 1.0577210083447929e+01
-1.3554415632793023e-02 1.0573554415632964e+01
-2.3743060081027233e-02 1.0583743060081014e+01
ITEM: ATOMS id type x y z 
1 1 0.904614 1.02011 0.957124 
2 1 2.60957 2.68712 0.898679 
3 1 2.62363 0.895976 2.77898 
4 1 0.84892 2.64098 2.67464 
5 1 4.42984 0.957204 1.02708 
8 1 4.35611 2.67969 2.69223 
13 1 0.938703 4.47367 0.88909 
15 1 2.65942 4.44617 2.69594 
17 1 4.33628 4.40704 0.838731 
37 1 0.941582 0.966042 4.39833 
38 1 2.56589 2.66749 4.52533 
41 1 4.23641 0.960673 4.44697 
49 1 0.885135 4.4965 4.38003 
53 1 4.45736 4.39679 4.46613 
6 1 6.18707 2.64634 0.866464 
7 1 6.19743 0.849661 2.65137 
9 1 7.93268 0.829756 0.903588 
10 1 9.79026 2.77651 0.834808 
11 1 9.53945 0.934438 2.58385 
12 1 8.05849 2.69814 2.51828 
19 1 6.2907 4.4265 2.64318 
21 1 7.93295 4.42453 0.870931 
23 1 9.74697 4.46918 2.73071 
42 1 6.2207 2.61176 4.34137 
45 1 7.92494 0.897166 4.39737 
46 1 9.6441 2.6135 4.46249 
57 1 7.93778 4.41122 4.33767 
14 1 2.75048 6.19907 0.86606 
16 1 0.829171 6.12829 2.64417 
20 1 4.42944 6.09755 2.60518 
25 1 0.911454 7.88849 0.803007 
26 1 2.69893 9.63153 1.11211 
27 1 2.66798 7.88216 2.7471 
28 1 0.985936 9.54189 2.64671 
29 1 4.36317 7.93331 0.866947 
32 1 4.33573 9.80207 2.72346 
50 1 2.59473 6.11219 4.46177 
61 1 0.780252 7.79103 4.3659 
62 1 2.67073 9.72417 4.57342 
65 1 4.35605 7.88399 4.36603 
18 1 6.13233 6.10903 0.84893 
22 1 9.71031 6.2003 0.704075 
24 1 7.99324 6.21578 2.51865 
30 1 6.14852 9.67137 0.751082 
31 1 6.08773 7.9414 2.63261 
33 1 7.85996 7.9461 0.83582 
34 1 9.91783 9.68347 0.898195 
35 3 9.68456 7.85862 2.54686 
36 1 7.90746 9.67491 2.49181 
54 1 6.13465 6.1365 4.43469 
58 1 9.60069 6.12721 4.52608 
66 2 6.18196 9.67523 4.42087 
69 1 7.99481 7.97943 4.24969 
70 1 9.75254 9.67095 4.36578 
39 1 2.61027 0.890153 6.23081 
40 1 0.787568 2.71788 6.20203 
44 1 4.39835 2.70335 6.14722 
51 1 2.6457 4.42522 6.18587 
73 1 0.782207 0.882782 7.8716 
74 1 2.61672 2.61556 7.89335 
75 1 2.57361 0.911967 9.82049 
76 1 0.974196 2.64178 9.79357 
77 1 4.36189 0.894062 7.96499 
80 1 4.37401 2.76341 9.70765 
85 1 0.914527 4.41457 7.84188 
87 1 2.49724 4.43703 9.73854 
89 1 4.29649 4.37392 7.90774 
43 1 6.15261 0.804645 6.04401 
47 1 9.67492 0.955453 6.18006 
48 1 7.87569 2.56039 6.1445 
55 1 6.11351 4.4335 6.2647 
59 1 9.54677 4.27932 6.10728 
78 1 6.23216 2.63672 7.90959 
79 1 6.01336 0.893365 9.66956 
81 1 7.86809 0.955408 7.96492 
82 1 9.73805 2.6366 7.94622 
83 1 9.77574 0.83952 9.86223 
84 1 7.96842 2.67799 9.70907 
91 1 6.0108 4.40098 9.71287 
93 1 7.86125 4.29328 8.0141 
95 1 9.74448 4.27487 9.7475 
52 1 0.907173 6.12286 6.30961 
56 1 4.42012 6.22384 6.2616 
63 1 2.4947 7.90888 6.18941 
64 1 0.809101 9.85561 6.14448 
68 1 4.44477 9.69384 6.24369 
86 1 2.63487 6.164 7.91758 
88 1 0.803523 6.30148 9.62104 
92 1 4.42807 6.19149 9.78349 
97 1 0.787602 8.07325 7.82588 
98 1 2.57324 9.72973 7.98298 
99 1 2.71889 7.90719 9.57433 
100 1 0.974329 9.66159 9.81094 
101 1 4.53721 8.03441 8.00161 
104 1 4.28554 9.70269 9.7367 
60 1 7.77555 6.19844 6.24548 
67 1 6.23175 7.94473 6.04778 
71 1 9.65821 7.96851 6.09661 
72 1 7.89559 9.78132 6.22261 
90 1 6.0367 6.10824 7.9705 
94 1 9.63417 6.1449 7.95921 
96 1 7.90195 6.05827 9.61099 
102 1 6.22587 9.73037 7.95642 
103 1 6.25818 7.78187 9.73106 
105 1 7.86115 7.95911 7.96671 
106 1 9.69679 9.87745 8.06628 
107 1 9.67768 8.01181 9.64657 
108 1 7.80366 9.69755 9.77026 
ITEM: TIMESTEP
13000
ITEM: NUMBER OF ATOMS
108
ITEM: BOX BOUNDS pp pp pp
-4.4970255004361616e-02 1.0604970255004243e+01
-3.0652526036704462e-02 1.0590652526036857e+01
-5.7779943586348886e-02 1.0617779943586319e+01
ITEM: ATOMS id type x y z 
1 1 0.921703 0.918299 0.792066 
2 1 2.62735 2.60859 0.969109 
3 1 2.58957 0.820812 2.60579 
4 1 0.795743 2.69228 2.60509 
5 1 4.32428 0.827187 0.896363 
8 1 4.4196 2.64145 2.56951 
13 1 0.880957 4.46503 1.00388 
15 1 2.72418 4.46972 2.64661 
17 1 4.37721 4.36507 0.84397 
37 1 0.853116 0.885551 4.40754 
38 1 2.71741 2.55207 4.44009 
41 1 4.32938 0.836149 4.43145 
49 1 0.81074 4.54364 4.28883 
53 1 4.32045 4.44945 4.37662 
6 1 6.1371 2.57606 0.800657 
7 1 6.10601 0.854395 2.63259 
9 1 7.90318 0.813961 0.819977 
10 1 9.73079 2.57454 0.877426 
11 1 9.78169 0.847208 2.62826 
12 1 7.88012 2.49313 2.55557 
19 1 6.19333 4.39967 2.68754 
21 1 7.82954 4.36626 0.854219 
23 1 9.54217 4.26533 2.6383 
42 1 6.28627 2.61346 4.40372 
45 1 7.99313 0.763166 4.36858 
46 1 9.69135 2.73218 4.4942 
57 1 7.84949 4.46064 4.41111 
14 1 2.77582 6.19592 0.933579 
16 1 0.764858 6.21399 2.69866 
20 1 4.46734 6.24373 2.53516 
25 1 0.716543 7.95843 0.897666 
26 1 2.54037 9.63599 0.769656 
27 1 2.55687 8.00004 2.57072 
28 1 0.831045 9.65298 2.53115 
29 1 4.42298 8.0216 0.838307 
32 1 4.30986 9.85785 2.59886 
50 1 2.65868 6.23505 4.54914 
61 1 0.814585 7.93872 4.40259 
62 1 2.59386 9.76165 4.45112 
65 1 4.40013 7.96914 4.42444 
18 1 6.30516 6.24407 0.750098 
22 1 9.7563 6.16397 0.879976 
24 1 8.05482 6.15089 2.49421 
30 1 6.24777 9.73904 0.735297 
31 1 6.35845 7.96487 2.748 
33 1 8.02693 8.03939 0.879481 
34 1 9.77209 9.768 0.695784 
35 3 9.63114 7.97568 2.72782 
36 1 7.92464 9.72874 2.66115 
54 1 6.14629 6.24508 4.31896 
58 1 9.66697 6.13356 4.40871 
66 3 6.165 9.76703 4.35794 
69 1 8.03628 7.97938 4.37869 
70 1 9.75378 9.67538 4.56886 
39 1 2.58715 0.767698 6.1659 
40 1 0.798799 2.54725 6.20158 
44 1 4.27579 2.65801 6.1965 
51 1 2.59762 4.32416 6.19532 
73 1 0.782208 0.948867 7.9587 