ITEM: TIMESTEP
5000
ITEM: NUMBER OF ATOMS
128
ITEM: BOX BOUNDS pp pp pp
9.3023060571221505e-02 1.1586976939428782e+01
8.1728965121410493e-02 1.1598271034878573e+01
9.0912000834947104e-02 1.1589087999164976e+01
ITEM: ATOMS id type x y z 
1 3 0.905664 0.79512 0.779286 
2 3 2.16263 2.2599 2.2699 
3 3 3.77274 0.757741 0.761955 
4 3 4.98757 2.28796 2.20891 
9 3 0.89844 3.78952 0.760956 
10 3 2.3185 5.38462 2.15518 
11 3 3.67769 3.71758 0.788634 
12 3 5.12906 5.17488 2.2965 
33 3 0.814419 0.822473 3.68894 
34 3 2.24014 2.20477 5.07413 
35 3 3.72387 0.778747 3.76933 
36 3 5.14476 2.29082 5.21758 
41 3 0.746692 3.67869 3.60315 
42 3 2.13524 5.01996 5.04714 
43 3 3.70868 3.68862 3.63588 
44 3 5.0854 5.09859 5.20956 
5 3 6.48608 0.849752 0.825009 
6 3 7.93922 2.27769 2.062 
7 3 9.47667 0.874357 0.865221 
8 3 10.8911 2.25128 2.17448 
13 3 6.48115 3.7114 0.776292 
14 3 7.89693 5.22048 2.27838 
15 3 9.42681 3.6896 0.771691 
16 3 10.725 5.06739 2.28665 
37 3 6.46846 0.828004 3.66666 
38 3 7.87521 2.20528 5.08954 
39 3 9.33272 0.809556 3.58581 
40 3 10.8886 2.14116 5.12127 
45 3 6.65125 3.63087 3.67679 
46 3 7.92036 5.0848 5.13234 
47 3 9.38573 3.54892 3.71594 
48 3 10.7903 5.09821 5.06288 
17 3 0.864014 6.6267 0.641429 
18 3 2.36913 7.95069 2.18934 
19 3 3.77244 6.55872 0.849109 
20 3 5.11349 8.03268 2.26202 
25 3 0.84169 9.45242 0.897332 
26 3 2.22066 10.897 2.25322 
27 3 3.62741 9.61049 0.891276 
28 3 5.16744 10.8742 2.31073 
49 3 0.754708 6.49505 3.83306 
50 3 2.18629 8.04038 5.02618 
51 3 3.59857 6.58514 3.71524 
52 3 5.14687 7.99945 5.15343 
57 3 0.730762 9.35856 3.70442 
58 3 2.22673 10.8908 5.0786 
59 3 3.55855 9.42065 3.77367 
60 3 4.9879 10.848 5.08982 
21 3 6.55015 6.6544 0.790682 
22 3 7.97744 8.07264 2.232 
23 3 9.46051 6.52269 0.802864 
24 3 10.7993 7.93369 2.27497 
29 3 6.5573 9.40339 0.693508 
30 3 8.03477 10.7964 2.11104 
31 3 9.4881 9.40255 0.822754 
32 3 10.8874 10.8766 2.28285 
53 3 6.53074 6.58755 3.65488 
54 3 8.00738 7.94124 5.19334 
55 3 9.38586 6.5182 3.74391 
56 3 10.855 8.0956 5.12055 
61 3 6.60161 9.4807 3.6551 
62 3 8.0145 10.9111 5.10038 
63 3 9.40757 9.53269 3.79439 
64 3 10.9671 10.8586 5.11489 
65 3 0.772543 0.840834 6.64593 
66 3 2.14134 2.32116 8.02655 
67 3 3.60999 0.929373 6.53442 
68 3 5.08117 2.38378 8.03201 
73 3 0.767738 3.65278 6.51647 
74 3 2.26788 5.11297 7.90181 
75 3 3.75326 3.6907 6.66408 
76 3 5.03109 5.06646 7.99004 
97 3 0.818263 0.833946 9.41985 
98 3 2.33206 2.24698 10.8574 
99 3 3.68059 0.85011 9.2523 
100 3 4.99667 2.2177 10.8991 
105 3 0.844369 3.85139 9.47482 
106 3 2.38048 5.13887 10.9 
107 3 3.786 3.68877 9.47112 
108 3 5.14465 5.1712 10.7992 
69 3 6.59193 0.831987 6.61742 
70 3 7.96663 2.15988 7.99462 
71 3 9.53684 0.768782 6.45762 
72 3 10.8694 2.30203 8.01668 
77 3 6.64812 3.64572 6.65813 
78 3 8.06921 5.01553 7.95559 
79 3 9.42792 3.52497 6.51498 
80 3 10.8876 5.07484 7.91272 
101 3 6.61161 0.74535 9.51333 
102 3 7.94141 2.22819 10.8651 
103 3 9.52518 0.673053 9.34997 
104 3 10.8055 2.30084 10.8611 
109 3 6.58834 3.60643 9.50973 
110 3 8.12216 5.10419 10.8739 
111 3 9.52149 3.71904 9.4219 
112 3 10.8566 5.13297 10.8463 
81 3 0.808505 6.64545 6.52894 
82 3 2.31812 7.97437 7.98081 
83 3 3.59703 6.60114 6.4941 
84 3 5.03552 7.90414 8.092 
89 3 0.868256 9.38753 6.72965 
90 3 2.24884 10.8353 8.03436 
91 3 3.70962 9.37616 6.54627 
92 3 5.15233 10.7978 7.97374 
113 3 0.759402 6.48973 9.41273 
114 3 2.41905 8.10405 11.0315 
115 3 3.63254 6.58768 9.49016 
116 3 5.06991 8.03581 10.6769 
121 3 0.963226 9.29516 9.55726 
122 3 2.24444 10.9091 10.8933 
123 3 3.65488 9.5161 9.33286 
124 3 5.08547 10.8358 10.7749 
85 3 6.54107 6.55768 6.61916 
86 3 8.09035 7.89676 8.03232 
87 3 9.48868 6.47734 6.56315 
88 3 10.8273 8.02243 8.05752 
93 3 6.6612 9.35906 6.65908 
94 3 8.02807 10.8749 7.92491 
95 3 9.48724 9.37819 6.5971 
96 3 10.9087 10.8701 8.1441 
117 3 6.64051 6.58127 9.46572 
118 3 8.01546 7.88819 10.9205 
119 3 9.37332 6.47571 9.44332 
120 3 10.9918 8.12207 10.8455 
125 3 6.56667 9.38069 9.40495 
126 3 8.06361 11.0053 10.9193 
127 3 9.29533 9.39253 9.42564 
128 3 10.817 10.844 10.7792 
ITEM: TIMESTEP
6000
ITEM: NUMBER OF ATOMS
128
ITEM: BOX BOUNDS pp pp pp
7.9825290766461943e-02 1.1600174709233551e+01
6.8723139793888832e-02 1.1611276860206090e+01
8.4392360423497501e-02 1.1595607639576439e+01
ITEM: ATOMS id type x y z 
1 3 0.891955 0.844814 0.839342 
2 3 2.23007 2.32938 2.16739 
3 3 3.65413 0.763596 0.731315 
4 3 5.07216 2.26761 2.16866 
9 3 0.70878 3.74682 0.88375 
10 3 2.21781 5.07004 2.26477 
11 3 3.61672 3.54336 0.807484 
12 3 5.06001 5.17574 2.19851 
33 3 0.73609 0.873792 3.75549 
34 3 2.36787 2.22477 5.13221 
35 3 3.68205 0.879492 3.57215 
36 3 5.08785 2.21533 5.11671 
41 3 0.869825 3.53596 3.76477 
42 3 2.30567 5.12286 4.99722 
43 3 3.7245 3.64947 3.65585 
44 3 5.11832 5.15809 5.094 
5 3 6.63953 0.846955 0.770523 
6 3 7.953 2.16779 2.25609 
7 3 9.45767 0.770367 0.774697 
8 3 10.825 2.17756 2.20202 
13 3 6.66569 3.59133 0.832261 
14 3 7.89992 5.06366 2.22869 
15 3 9.39839 3.70647 0.874954 
16 3 10.9061 5.14409 2.24867 
37 3 6.51092 0.832292 3.77918 
38 3 8.06711 2.2328 5.072 
39 3 9.38983 0.829759 3.66786 
40 3 10.8732 2.29665 5.20455 
45 3 6.47153 3.76032 3.71443 
46 3 7.98094 5.20901 5.19726 
47 3 9.478 3.73971 3.72582 
48 3 10.7702 5.16307 5.06383 
17 3 0.77565 6.59175 0.779357 
18 3 2.20158 8.00187 2.21963 
19 3 3.70879 6.59398 0.79947 
20 3 4.96228 8.07347 2.22719 
25 3 0.81536 9.38912 0.721466 
26 3 2.21716 10.9625 2.1931 
27 3 3.71804 9.45873 0.800332 
28 3 5.0276 10.8908 2.26531 
49 3 0.73645 6.47678 3.578 
50 3 2.17578 8.0006 5.11375 
51 3 3.63792 6.58194 3.71608 
52 3 5.05373 7.89554 5.10164 
57 3 0.743034 9.49701 3.75471 
58 3 2.28211 10.7607 5.12334 
59 3 3.6909 9.50075 3.7152 
60 3 5.07307 10.8674 5.07159 
21 3 6.6697 6.53992 0.798594 
22 3 7.97962 8.10895 2.24207 
23 3 9.458 6.53613 0.774237 
24 3 10.7054 8.05916 2.19899 
29 3 6.62643 9.56377 0.866641 
30 3 8.12248 10.845 2.32132 
31 3 9.32431 9.45727 0.688849 
32 3 11.0036 10.7433 2.21655 
53 3 6.56948 6.56789 3.61106 
54 3 7.91312 7.95571 5.0988 
55 3 9.42573 6.53796 3.61052 
56 3 10.7894 7.98623 5.07913 
61 3 6.49699 9.32414 3.68648 
62 3 7.89492 10.7898 4.94109 
63 3 9.39172 9.42236 3.66488 
64 3 10.835 10.8964 5.21433 
65 3 0.770397 0.792235 6.46262 
66 3 2.34932 2.1516 8.10125 
67 3 3.70345 0.702662 6.49466 
68 3 5.1989 2.17362 8.05863 
73 3 0.849364 3.67587 6.54057 
74 3 2.21946 5.15287 7.9905 
75 3 3.65573 3.63248 6.52906 
76 3 5.13974 5.12682 8.09866 
97 3 0.833152 0.78839 9.55855 
98 3 2.08383 2.25585 10.7909 
99 3 3.74734 0.846848 9.55381 
100 3 5.14884 2.25899 10.9452 
105 3 0.757267 3.63716 9.35375 
106 3 2.31034 5.15748 10.9022 
107 3 3.66023 3.74819 9.41005 
108 3 5.18974 5.1377 10.9165 
69 3 6.62583 0.674047 6.59926 
70 3 7.97557 2.34511 7.95678 
71 3 9.23986 0.707964 6.58755 
72 3 10.8754 2.0969 8.02625 
77 3 6.58546 3.74527 6.60878 
78 3 8.078 5.07626 8.06835 
79 3 9.44696 3.60826 6.57716 
80 3 10.9124 5.21138 7.89777 
101 3 6.57664 0.821966 9.42581 
102 3 8.07504 2.17611 10.8335 
103 3 9.44283 0.798988 9.33446 
104 3 10.8519 2.28947 10.803 
109 3 6.56609 3.67838 9.53244 
110 3 8.00734 5.05007 10.771 
111 3 9.59241 3.68558 9.40132 
112 3 10.9817 5.05643 10.845 
81 3 0.865515 6.5873 6.59518 
82 3 2.2008 8.10646 8.09306 
83 3 3.6817 6.59429 6.64446 
84 3 5.05726 8.08743 7.98591 
89 3 0.854188 9.49252 6.73861 
90 3 2.38777 10.9791 7.95333 
91 3 3.73024 9.42409 6.58438 
92 1 5.09985 10.8791 8.02455 
113 3 0.914289 6.64827 9.46236 
114 3 2.28307 8.01583 10.8627 
115 3 3.74592 6.6093 9.5167 
116 3 5.39489 8.0174 11.0204 
121 3 0.752353 9.44359 9.50354 
122 3 2.27091 10.81 10.8488 
123 3 3.75751 9.48318 9.46968 
124 3 5.09437 10.9048 10.8579 
85 3 6.56861 6.49604 6.65909 
86 3 7.97802 7.98907 8.05418 
87 3 9.36542 6.58175 6.68195 
88 3 10.9525 8.0562 7.99783 
93 3 6.44704 9.42173 6.46229 
94 3 7.87994 10.8362 8.02809 
95 3 9.54879 9.43054 6.52419 
96 3 10.8486 10.9402 8.07388 
117 3 6.6026 6.52879 9.35933 
118 3 7.86408 7.9882 10.8992 
119 3 9.44848 6.65872 9.34299 
120 3 10.7895 7.85201 10.8921 
125 3 6.6147 9.46875 9.34246 
126 3 8.01638 10.865 10.77 
127 3 9.52168 9.3315 9.50906 
128 3 10.8851 10.9316 10.8467 
ITEM: TIMESTEP
7000
ITEM: NUMBER OF ATOMS
128
ITEM: BOX BOUNDS pp pp pp
9.9259913988893014e-02 1.1580740086011076e+01
7.5962455139291757e-02 1.1604037544860679e+01
1.0638717152579888e-01 1.1573612828474133e+01
ITEM: ATOMS id type x y z 
1 3 0.803559 0.816965 0.838111 
2 3 2.19765 2.14363 2.33439 
3 3 3.76928 0.636928 0.849091 
4 3 5.02244 2.22472 2.22535 
9 3 0.873249 3.56221 0.90181 
10 3 2.24905 5.25821 2.22529 
11 3 3.61797 3.61367 0.775278 
12 3 5.36522 5.11166 2.34041 
33 3 0.765978 0.715673 3.77223 
34 3 2.38354 2.14378 5.14146 
35 3 3.68635 0.76977 3.75424 
36 3 5.17078 2.21955 5.0479 
41 3 0.865282 3.64049 3.63197 
42 3 2.26302 5.01928 5.18466 
43 3 3.76173 3.85862 3.62808 
44 3 5.10088 5.10913 5.11022 
5 3 6.57622 0.715454 0.819495 
6 3 8.02214 2.21003 2.19898 
7 3 9.53026 0.693398 0.796798 
8 3 10.6942 2.28918 2.29494 
13 3 6.48706 3.59862 0.800472 
14 3 7.88746 5.08651 2.20754 
15 3 9.39258 3.64984 0.776761 
16 3 10.7962 5.03759 2.23342 
37 3 6.58493 0.825686 3.63935 
38 3 7.94901 2.15941 4.99531 
39 3 9.46662 0.728292 3.60325 
40 3 10.6885 2.18776 5.0639 
45 3 6.63937 3.62471 3.70321 
46 3 8.037 5.18262 5.12132 
47 3 9.31068 3.73367 3.6707 
48 3 10.9121 5.22209 4.99885 
17 3 0.719249 6.59173 0.827021 
18 3 2.34505 7.89851 2.29654 
19 3 3.81655 6.49645 0.879509 
20 3 5.1269 8.065 2.35309 
25 3 0.792615 9.34161 0.976416 
26 3 2.25291 10.8642 2.1665 
27 3 3.73519 9.23494 0.877101 
28 3 5.20393 10.8727 2.29978 
49 3 0.826147 6.6217 3.69795 
50 3 2.18416 8.02892 5.09856 
51 3 3.68773 6.57942 3.79657 
52 3 5.02463 8.02438 5.1039 
57 3 0.791263 9.39272 3.60345 
58 3 2.25944 10.9324 5.16574 
59 3 3.54811 9.5151 3.6747 
60 3 5.05307 10.8602 5.07828 
21 3 6.50281 6.53128 0.905066 
22 3 7.88449 8.04993 2.178 
23 3 9.41252 6.52499 0.94263 
24 3 10.8261 7.93913 2.17148 
29 3 6.56138 9.49234 0.895935 
30 3 8.03636 10.9551 2.21667 
31 3 9.44811 9.43812 0.829857 
32 3 10.9737 10.877 2.24715 
53 3 6.54516 6.6358 3.79823 
54 3 8.01164 7.98972 5.16147 
55 3 9.48086 6.61959 3.62703 
56 3 10.8082 8.08803 5.11425 
61 3 6.61865 9.49876 3.75191 
62 3 8.02397 10.9278 5.12698 
63 3 9.53992 9.53954 3.66739 
64 3 10.8389 10.8599 5.14312 
65 3 0.773959 0.951723 6.5237 
66 3 2.28608 2.24828 8.11722 
67 3 3.67639 0.854095 6.58936 
68 3 5.1787 2.19372 8.00871 
73 3 0.851277 3.55126 6.37125 
74 3 2.15027 5.20148 7.92001 
75 3 3.87591 3.5868 6.5837 
76 3 4.9826 5.16472 8.04193 
97 3 0.86693 0.732811 9.52353 
98 3 2.30344 2.29047 10.7945 
99 3 3.67427 0.861809 9.40248 
100 3 5.06285 2.12681 10.7964 
105 3 0.856798 3.80813 9.44041 
106 3 2.28342 5.18658 10.8717 
107 3 3.65411 3.81852 9.35286 
108 3 5.05406 5.21526 10.761 
69 3 6.56085 0.759574 6.51054 
70 3 7.96733 2.20293 7.98168 
71 3 9.42523 0.859578 6.55036 
72 3 10.9352 2.34893 8.01619 
77 3 6.49038 3.72716 6.52775 
78 3 8.0365 5.17894 7.98621 
79 3 9.50655 3.76571 6.61219 
80 3 10.8917 5.09236 8.06587 
101 3 6.70489 0.848745 9.48013 
102 3 7.95259 2.25861 10.7821 
103 3 9.49322 0.880681 9.41981 
104 3 10.9075 2.25159 10.8716 
109 3 6.50369 3.59311 9.39571 
110 3 7.97279 5.08346 10.9184 
111 3 9.39818 3.61737 9.42665 
112 3 10.8067 5.12283 10.8767 
81 3 0.806238 6.55984 6.4646 
82 3 2.20917 8.06168 7.90148 
83 3 3.62855 6.47787 6.59267 
84 3 5.20572 7.94382 7.98113 
89 3 0.709929 9.61556 6.53863 
90 3 2.23893 10.852 8.06424 
91 3 3.69931 9.43509 6.65732 
92 3 5.22325 10.8763 7.92468 
113 3 0.747653 6.55083 9.38127 
114 3 2.35126 7.91173 10.8583 
115 3 3.6995 6.60771 9.44343 
116 3 5.08373 7.98469 10.87 
121 3 0.799907 9.43809 9.44349 
122 3 2.33631 10.8683 10.835 
123 3 3.79103 9.44035 9.4374 
124 3 5.2551 10.7711 10.9121 
85 3 6.49652 6.48851 6.53152 
86 3 7.97089 8.08706 7.98635 
87 3 9.45718 6.56201 6.59818 
88 3 10.7757 8.00132 7.9749 
93 3 6.63033 9.39362 6.50597 
94 3 7.97752 10.8698 7.92053 
95 3 9.30437 9.38659 6.54396 
96 3 10.6953 10.9209 7.99053 
117 3 6.5858 6.58408 9.39383 
118 3 7.99881 8.02844 10.936 
119 3 9.43251 6.56641 9.52121 
120 3 10.9508 8.06952 10.8955 
125 3 6.53977 9.50853 9.43186 
126 1 7.90554 10.9331 10.8547 
127 3 9.38312 9.47536 9.42766 
128 3 10.8421 10.8315 10.914 
ITEM: TIMESTEP
8000
ITEM: NUMBER OF ATOMS
128
ITEM: BOX BOUNDS pp pp pp
7.7627268668893162e-02 1.1602372731331116e+01
4.9779004944695560e-02 1.1630220995055300e+01
8.6844306326077592e-02 1.1593155693673895e+01
ITEM: ATOMS id type x y z 
1 3 0.813473 0.738594 0.943377 
2 3 2.2248 2.20163 2.27189 
3 3 3.58508 0.798123 0.898229 
4 3 5.07284 2.22235 2.19028 
9 3 0.696297 3.68133 0.750796 
10 3 2.30164 4.93976 2.20309 
11 3 3.73075 3.6316 0.868102 
12 3 5.18502 5.08982 2.2269 
33 3 0.676516 0.764707 3.69644 
34 3 2.06801 2.11433 5.01197 
35 3 3.75844 0.820263 3.72993 
36 3 5.16313 2.18601 5.02304 
41 3 0.784067 3.60113 3.63173 
42 3 2.26533 5.15946 5.13749 
43 3 3.72625 3.67741 3.63061 
44 3 5.21471 5.0869 5.1283 
5 3 6.46163 0.847062 0.83657 
6 3 7.99069 2.17702 2.20603 
7 3 9.53424 0.814228 0.922143 
8 3 10.8398 2.17763 2.28449 
13 3 6.55613 3.73 0.721611 
14 3 8.11754 5.17406 2.1657 
15 3 9.49388 3.61938 0.741308 
16 3 10.7906 5.09395 2.23197 
37 3 6.54443 0.872715 3.66496 
38 3 7.97655 2.27313 5.16309 
39 3 9.43216 0.830217 3.77991 
40 3 10.9417 2.26822 5.1138 
45 3 6.56174 3.75382 3.60217 
46 3 7.92133 5.08219 5.05399 
47 3 9.43899 3.6966 3.71009 
48 3 10.8709 5.08535 5.08791 
17 3 0.767004 6.53355 0.765198 
18 3 2.22222 7.92148 2.25454 
19 3 3.71583 6.40756 0.86164 
20 3 5.02058 8.03717 2.26915 
25 3 0.904169 9.46732 0.791034 
26 3 2.31951 10.9572 2.28527 
27 3 3.65181 9.43332 0.852142 
28 3 5.14645 10.9461 2.28116 
49 3 0.794009 6.45841 3.69773 
50 3 2.21715 8.01061 5.01701 
51 3 3.66395 6.55658 3.72878 
52 3 5.11082 8.06842 5.22541 
57 3 0.767019 9.37358 3.69834 
58 3 2.20889 10.9181 5.16966 
59 3 3.77837 9.5257 3.71402 
60 3 5.23756 11.0865 5.10656 
21 3 6.58118 6.53703 0.894893 
22 3 8.05633 7.91717 2.29421 
23 3 9.39602 6.56918 0.786161 
24 3 10.8101 7.91785 2.22144 
29 3 6.61732 9.4411 0.93895 
30 3 8.04759 10.9456 2.44574 
31 3 9.53414 9.59346 0.992491 
32 3 11.0012 10.8485 2.30035 
53 3 6.57869 6.62456 3.6874 
54 3 7.95063 7.96428 5.0981 
55 3 9.49438 6.52332 3.78279 
56 3 10.9203 7.98128 5.13226 
61 3 6.63375 9.36871 3.57513 
62 3 7.94636 10.9187 5.14072 
63 3 9.50214 9.39699 3.71983 
64 3 10.8738 10.973 5.25792 
65 3 0.823504 0.725882 6.68733 
66 3 2.24693 2.28512 7.9452 
67 3 3.68801 0.70814 6.50258 
68 3 5.19654 2.22621 7.88999 
73 3 0.754444 3.82237 6.58196 
74 3 2.32169 5.16344 7.94563 
75 3 3.7055 3.50475 6.45661 
76 3 4.93831 5.11813 8.07919 
97 3 0.907312 0.767363 9.34255 
98 3 2.19273 2.13961 11.016 
99 3 3.76977 0.869751 9.49425 
100 3 5.17582 2.256 10.9169 
105 3 0.662973 3.56089 9.43325 
106 3 2.12485 5.12901 10.932 
107 3 3.61539 3.57001 9.4891 
108 3 5.07077 5.00559 10.8301 
69 3 6.55098 0.732702 6.54548 
70 3 8.02079 2.37213 7.79811 
71 3 9.45582 0.799555 6.5964 
72 3 10.982 2.11076 7.82862 
77 3 6.62314 3.76204 6.51765 
78 3 7.98346 5.06034 7.98288 
79 3 9.4983 3.68579 6.56504 
80 3 10.8629 5.31158 7.94725 
101 3 6.44829 0.86335 9.42342 
102 3 8.0271 2.14316 10.842 
103 3 9.569 0.915372 9.32251 
104 3 10.851 2.17056 10.8332 
109 3 6.5598 3.73335 9.37553 
110 3 7.98672 5.15988 10.7719 
111 3 9.4093 3.63325 9.4177 
112 3 10.7875 5.19314 10.8661 
81 3 0.832155 6.61829 6.50693 
82 3 2.19185 8.1228 8.10595 
83 3 3.66261 6.62232 6.48066 
84 3 5.02351 7.96129 7.98255 
89 3 0.866079 9.4414 6.65775 
90 3 2.30275 10.9704 7.92133 
91 3 3.61306 9.42573 6.54103 
92 3 5.1584 10.8584 8.05317 
113 3 0.822305 6.48663 9.47935 
114 3 2.21783 8.1032 10.7577 
115 3 3.60629 6.61859 9.47132 
116 3 5.22038 8.0031 10.9009 
121 3 0.701286 9.55969 9.42568 
122 3 2.16102 10.8666 10.9372 
123 3 3.74954 9.58775 9.43431 
124 3 5.05811 11.0083 10.92 
85 3 6.57004 6.46512 6.53166 
86 3 7.94105 8.06889 7.99742 
87 3 9.40874 6.61027 6.48689 
88 3 10.9965 8.03643 8.06979 
93 3 6.54756 9.3932 6.60141 
94 3 7.90294 10.8377 8.07522 
95 3 9.482 9.44698 6.51845 
96 3 10.7947 10.9385 7.943 
117 3 6.58351 6.46016 9.43868 
118 3 7.98179 7.95571 10.8397 
119 3 9.32185 6.55002 9.33214 
120 3 10.7685 7.87425 10.7733 
125 3 6.54651 9.43753 9.52819 
126 4 8.04774 10.8797 10.9186 
127 3 9.48341 9.37411 9.42428 
128 3 10.8686 10.966 10.7621 
ITEM: TIMESTEP
9000
ITEM: NUMBER OF ATOMS
128
ITEM: BOX BOUNDS pp pp pp
9.8420501662700485e-02 1.1581579498337321e+01
7.3306144058856382e-02 1.1606693855941147e+01
1.0900107474145075e-01 1.1570998925258552e+01
ITEM: ATOMS id type x y z 
1 3 0.761495 0.87969 0.809626 
2 3 2.30606 2.22181 2.34662 
3 3 3.66586 0.854535 0.801716 
4 3 5.0867 2.29696 2.24879 
9 3 0.823219 3.66894 0.855334 
10 3 2.20471 5.2141 2.17324 
11 3 3.73285 3.83368 0.878136 
12 3 5.26772 5.10938 2.38588 
33 3 0.871135 0.736863 3.70854 
34 3 2.3349 2.23958 5.18856 
35 3 3.70319 0.821862 3.81372 
36 3 5.03435 2.29987 5.11947 
41 3 0.845623 3.65013 3.58795 
42 3 2.25411 5.08179 5.16013 
43 3 3.69143 3.80485 3.73218 
44 3 5.01612 5.17663 5.20995 
5 3 6.40685 0.81992 0.865899 
6 3 7.89181 2.16206 2.22067 
7 3 9.38381 0.778775 0.845271 
8 3 10.9058 2.2169 2.29869 
13 3 6.62024 3.69187 0.901317 
14 3 7.97072 5.13995 2.2574 
15 3 9.49744 3.69545 0.849322 
16 3 10.9135 5.1097 2.26368 
37 3 6.58462 0.807736 3.67711 
38 3 7.97031 2.16948 5.15693 
39 3 9.43204 0.745865 3.65909 
40 3 10.7759 2.2588 4.99437 
45 3 6.62172 3.55602 3.72045 
46 3 7.93444 5.16144 5.13414 
47 3 9.37726 3.62138 3.56515 
48 3 10.828 5.12608 5.05091 
17 3 0.841404 6.59073 0.797387 
18 3 2.15129 8.0324 2.2386 
19 3 3.75624 6.57535 0.761569 
20 3 5.136 8.01967 2.25806 
25 3 0.850148 9.47771 0.887158 
26 3 2.21117 10.8267 2.25228 
27 3 3.66518 9.40465 0.851825 
28 3 5.08194 10.9031 2.28213 
49 3 0.777494 6.61736 3.60084 
50 3 2.2894 7.95952 5.12793 
51 3 3.73997 6.56749 3.66521 
52 3 5.14235 8.04327 5.18769 
57 3 0.850936 9.38675 3.82939 
58 3 2.31251 10.8476 5.17154 
59 3 3.75131 9.45909 3.65552 
60 3 5.15694 10.9319 5.17653 
21 3 6.44718 6.50579 0.884751 
22 3 7.98469 8.04064 2.22246 
23 3 9.49063 6.51195 0.902869 
24 3 10.8103 8.05294 2.26393 
29 3 6.52913 9.3783 0.88623 
30 3 8.02365 10.7806 2.33518 
31 3 9.43395 9.47701 0.871422 
32 3 10.9589 10.9279 2.22128 
53 3 6.49949 6.65084 3.83268 
54 3 8.05932 8.03974 5.11428 
55 3 9.36762 6.46755 3.57774 
56 3 10.841 7.91855 5.08691 
61 3 6.54352 9.4087 3.84291 
62 3 8.15314 11.0341 5.16859 
63 3 9.52089 9.46258 3.74312 
64 3 10.8885 10.934 5.06955 
65 3 0.785797 0.93696 6.47628 
66 3 2.19302 2.20063 7.96456 
67 3 3.71373 0.786362 6.6623 
68 3 5.09587 2.14276 7.9746 
73 3 0.802516 3.72231 6.55204 
74 3 2.18483 5.05722 7.99134 
75 3 3.71056 3.62249 6.60971 
76 3 5.07066 5.0974 7.82685 
97 3 0.765946 0.686594 9.43761 
98 3 2.28918 2.27962 10.7236 
99 3 3.65042 0.777418 9.42487 
100 3 5.06997 2.29111 10.7563 
105 3 0.797102 3.69398 9.4578 
106 3 2.24467 5.02581 10.9371 
107 3 3.61224 3.68349 9.31978 
108 3 5.14127 5.23411 10.7843 
69 3 6.5616 0.864062 6.60252 
70 3 7.97341 2.23476 8.0802 
71 3 9.45926 0.963472 6.60622 
72 3 10.8217 2.20885 8.043 
77 3 6.44973 3.63616 6.50824 
78 3 8.01897 5.1944 7.80942 
79 3 9.55429 3.7824 6.51606 
80 3 10.8138 4.99419 8.06402 
101 3 6.5157 0.81674 9.44901 
102 3 7.93648 2.27019 10.8525 
103 3 9.54706 0.780415 9.49874 
104 3 10.9129 2.13126 10.7974 
109 3 6.55835 3.69849 9.35002 
110 3 7.9294 5.16262 10.7223 
111 3 9.37093 3.73478 9.45564 
112 3 10.8098 5.11881 10.9547 
81 3 0.850779 6.50964 6.54502 
82 3 2.2318 7.93534 7.9318 
83 3 3.67588 6.49202 6.63577 
84 3 5.30189 7.9751 7.89306 
89 3 0.792839 9.43557 6.45087 
90 3 2.15764 10.7466 8.06386 
91 3 3.84579 9.38175 6.63525 
92 3 5.12969 10.911 8.00959 
113 3 0.746903 6.44868 9.4803 
114 3 2.21938 7.84943 10.8293 
115 3 3.66532 6.49613 9.41309 
116 3 5.02909 7.94774 10.8805 
121 3 0.720252 9.3253 9.36853 
122 3 2.19726 10.9856 10.8411 
123 3 3.60188 9.40325 9.44107 
124 3 5.07602 10.8414 10.8058 
85 3 6.51811 6.62058 6.50261 
86 3 7.93363 7.92334 7.88629 
87 3 9.56736 6.47372 6.49141 
88 3 10.9066 7.83958 7.93732 
93 3 6.56759 9.60276 6.51626 
94 3 8.03331 11.0157 8.13919 
95 3 9.49765 9.45917 6.5912 
96 3 10.7967 10.9377 7.95677 
117 3 6.51397 6.60818 9.37385 
118 3 8.14711 8.00683 10.7478 
119 3 9.51168 6.54652 9.39666 
120 3 10.9265 8.03689 10.8581 
125 3 6.42901 9.38439 9.44238 
126 4 7.89769 10.8429 10.739 
127 3 9.49135 9.43976 9.31986 
128 3 10.833 10.8429 10.9188 
ITEM: TIMESTEP
10000
ITEM: NUMBER OF ATOMS
128
ITEM: BOX BOUNDS pp pp pp
6.9450123796237495e-02 1.1610549876203795e+01
5.4877146661096110e-02 1.1625122853338889e+01
8.6085294562661938e-02 1.1593914705437344e+01
ITEM: ATOMS id type x y z 
1 3 0.690598 0.704147 0.907036 
2 3 2.23539 2.20759 2.08542 
3 3 3.73418 0.840247 0.850868 
4 3 5.11393 2.17504 2.24997 
9 3 0.626063 3.74539 0.8303 
10 3 2.21573 4.89247 2.24136 
11 3 3.76449 3.68469 0.738618 
12 3 5.0794 5.11606 2.28158 
33 3 0.723193 0.794746 3.69126 
34 3 2.08478 2.23189 5.11121 
35 3 3.70289 0.666771 3.55231 
36 3 5.00517 2.15591 5.15881 
41 3 0.708559 3.69213 3.67007 
42 3 2.11241 5.19289 5.15493 
43 3 3.54519 3.61742 3.76392 
44 3 5.02259 5.14097 5.04142 
5 3 6.59873 0.861506 0.7742 
6 3 8.09979 2.19292 2.22114 
7 3 9.59032 0.872423 0.823391 
8 3 10.8516 2.1994 2.23175 
13 3 6.53485 3.67748 0.920701 
14 3 7.99688 5.16381 2.16011 
15 3 9.44087 3.67334 0.794193 
16 3 10.7757 5.10862 2.2374 
37 3 6.59943 0.865152 3.62871 
38 3 8.01145 2.33818 5.22135 
39 3 9.52017 0.869453 3.83746 
40 3 11.0053 2.2087 5.10224 
45 3 6.57651 3.67636 3.73833 
46 3 8.01898 5.11633 5.19585 
47 3 9.43174 3.646 3.74703 
48 3 10.8985 5.15328 5.33094 
17 3 0.651733 6.58651 0.793443 
18 3 2.1171 7.93839 2.24757 
19 3 3.56823 6.45876 0.816138 
20 3 5.138 7.8488 2.30426 
25 3 0.824041 9.47243 0.820435 
26 3 2.18842 10.9924 2.25647 
27 3 3.76007 9.52857 0.736822 
28 3 5.1361 10.7761 2.02185 
49 3 0.698917 6.43091 3.65085 
50 3 2.30039 7.9971 5.00381 
51 3 3.50066 6.55984 3.6077 
52 3 5.11722 8.01376 5.09488 
57 3 0.777379 9.39564 3.75886 
58 3 2.216 10.7876 4.99952 
59 3 3.74137 9.43419 3.58718 
60 3 5.09637 10.9587 5.06674 
21 3 6.60179 6.54142 0.897436 
22 3 7.92921 7.97858 2.2953 
23 3 9.4882 6.58641 0.626145 
24 3 10.9263 8.05597 2.30552 
29 3 6.58942 9.4203 0.686007 
30 3 8.13488 10.9697 2.19618 
31 3 9.54608 9.39987 0.835871 
32 3 10.8231 10.8423 2.28637 
53 3 6.57389 6.58664 3.82132 
54 3 7.98372 8.06696 5.10542 
55 3 9.575 6.52873 3.73517 
56 3 10.943 7.96071 5.14152 
61 3 6.50772 9.52813 3.59129 
62 3 7.93303 10.9008 5.09346 
63 3 9.47716 9.45092 3.69174 
64 3 10.9483 10.7766 5.1969 
65 3 0.744663 0.711931 6.55918 
66 3 2.20963 2.07192 7.99377 
67 3 3.66477 0.650679 6.36825 
68 3 5.07863 2.23081 7.99087 
73 3 0.730507 3.72458 6.72817 
74 3 2.23912 5.16767 7.92597 
75 3 3.64341 3.62165 6.61681 
76 3 5.23236 5.1767 8.11469 
97 3 0.742736 0.695275 9.29037 
98 3 2.19985 2.07403 10.7844 
99 3 3.75352 0.728917 9.40535 
100 3 5.14268 2.2858 10.8359 
105 3 0.837081 3.59344 9.34592 
106 3 2.12581 5.12656 10.869 
107 3 3.65535 3.71044 9.43847 
108 3 5.11211 5.11003 10.9357 
69 3 6.61999 0.766636 6.51609 
70 3 7.97356 2.1987 8.07065 
71 3 9.44145 0.707278 6.53325 
72 3 10.7972 2.35141 8.03985 
77 3 6.53553 3.78059 6.52734 
78 3 8.00803 5.12627 8.11546 
79 3 9.43451 3.64019 6.57427 
80 3 10.7788 5.07504 8.00588 
101 3 6.48336 0.827162 9.3523 
102 3 7.96301 2.12681 10.9808 
103 3 9.55853 0.806298 9.35997 
104 3 11.0445 2.19437 10.8215 
109 3 6.48831 3.60846 9.46618 
110 3 7.90157 5.15209 10.8295 
111 3 9.34053 3.65644 9.50828 
112 3 10.8637 5.12284 10.814 
81 3 0.931007 6.62725 6.6198 
82 3 2.31088 8.1126 8.09344 
83 3 3.69408 6.57461 6.67431 
84 3 5.05818 8.0107 8.06608 
89 3 0.848355 9.42527 6.57706 
90 3 2.22979 10.9586 7.93185 
91 3 3.70344 9.49097 6.51612 
92 3 5.06947 10.8734 7.93023 
113 3 0.948096 6.55646 9.40923 
114 3 2.33048 8.20523 10.9022 
115 3 3.64494 6.52738 9.45051 
116 3 5.16015 7.9166 10.9678 
121 3 0.804846 9.42835 9.45194 
122 3 2.28657 10.9924 10.8627 
123 3 3.74282 9.45033 9.46158 
124 3 5.10755 11.041 10.9408 
85 3 6.52739 6.62501 6.62772 
86 3 7.95421 8.02986 7.97926 
87 3 9.47778 6.5923 6.55058 
88 3 11.0283 7.99454 7.8563 
93 3 6.58718 9.64783 6.66378 
94 3 8.04954 10.9073 8.14237 
95 3 9.45221 9.35909 6.52854 
96 3 10.7093 10.7339 7.91005 
117 3 6.5002 6.53831 9.54588 
118 3 7.87293 7.96478 10.8566 
119 3 9.47071 6.65051 9.41368 
120 3 10.8977 8.02568 10.7758 
125 3 6.50949 9.3989 9.44202 
126 4 8.05389 11.0112 10.8401 
127 3 9.51828 9.34829 9.34811 
128 3 10.9256 10.999 10.7994 
ITEM: TIMESTEP
11000
ITEM: NUMBER OF ATOMS
128
ITEM: BOX BOUNDS pp pp pp
8.6326471805223667e-02 1.1593673528194795e+01
7.7948709483683792e-02 1.1602051290516311e+01
1.0534603455909942e-01 1.1574653965440879e+01
ITEM: ATOMS id type x y z 
1 3 0.898151 0.689884 0.784684 
2 3 2.27555 2.07964 2.20205 
3 3 3.75045 0.791507 0.68329 
4 3 4.92043 2.27911 2.22444 
9 3 0.720588 3.69617 0.667725 
10 3 2.23523 5.10854 2.14891 
11 3 3.6963 3.68441 0.800859 
12 3 5.15677 5.11178 2.25775 
33 3 0.916742 0.760726 3.63386 
34 3 2.24645 2.19656 5.05569 
35 3 3.82491 0.694668 3.72076 
36 3 5.18038 2.24994 5.1563 
41 3 0.709846 3.64789 3.73745 
42 3 2.20434 5.08224 5.1019 
43 3 3.6734 3.62662 3.70304 
44 3 5.1375 5.28461 5.13998 
5 3 6.42587 0.808147 0.75643 
6 3 7.90506 2.12289 2.2568 
7 3 9.34958 0.720963 0.884091 
8 3 10.9352 2.14888 2.1422 
13 3 6.42063 3.74085 0.910798 
14 3 7.9222 5.20526 2.22688 
15 3 9.48498 3.58072 0.866838 
16 3 10.7878 5.04919 2.29196 
37 3 6.45207 0.77778 3.73247 
38 3 7.92802 2.25723 5.14751 
39 3 9.41147 0.884157 3.70047 
40 3 10.8371 2.17499 5.05084 
45 3 6.50671 3.61787 3.62974 
46 3 7.93442 5.15922 5.03761 
47 3 9.31532 3.56371 3.65377 
48 3 10.6542 5.08794 5.02936 
17 3 0.756148 6.52636 0.722173 
18 3 2.30144 7.96926 2.27803 
19 3 3.70124 6.69319 0.70416 
20 3 5.15924 7.95606 2.26398 
25 3 0.737318 9.44176 0.878707 
26 3 2.32734 10.8208 2.14065 
27 3 3.66438 9.42935 0.77344 
28 3 5.13766 10.8625 2.18535 
49 3 0.867563 6.44179 3.59181 
50 3 2.23386 7.91545 5.18408 
51 3 3.67773 6.52608 3.71031 
52 3 5.01142 7.99741 5.0654 
57 3 0.731971 9.44399 3.61148 
58 3 2.18436 10.853 5.10171 
59 3 3.7037 9.46458 3.63083 
60 3 5.06307 10.7502 5.10581 
21 3 6.65654 6.62126 0.853205 
22 3 7.89269 8.15379 2.26543 
23 3 9.5291 6.59322 1.02 
24 3 10.9691 7.86108 2.35939 
29 3 6.55004 9.3718 0.776471 
30 3 7.92046 10.833 2.30048 
31 3 9.59558 9.44661 0.929043 
32 3 10.842 10.9339 2.1449 
53 3 6.63172 6.61875 3.74763 
54 3 8.05867 8.10885 5.14105 
55 3 9.33889 6.54222 3.56565 
56 3 10.8518 7.87809 5.12719 
61 1 6.4753 9.4397 3.80434 
62 3 7.9403 10.9217 5.03424 
63 3 9.47313 9.57295 3.66324 
64 3 10.9349 10.8521 5.12896 
65 3 0.884061 0.839456 6.52641 
66 3 2.25534 2.17729 7.96778 
67 3 3.7048 0.673018 6.56722 
68 3 5.07391 2.28757 8.01282 
73 3 0.791444 3.64186 6.67434 
74 3 2.24826 5.20507 7.98065 
75 3 3.75404 3.6889 6.5909 
76 3 5.15905 5.00541 7.94407 
97 3 0.86654 0.882139 9.46679 
98 3 2.13841 2.2335 10.9244 
99 3 3.68745 0.87382 9.43327 
100 3 5.11569 2.25551 10.8942 
105 3 0.828184 3.73173 9.48801 
106 3 2.26771 5.16019 10.8231 
107 3 3.59604 3.63153 9.41858 
108 3 5.00508 5.18359 10.7472 
69 3 6.58314 0.864805 6.53138 
70 3 8.08327 2.34016 8.03787 
71 3 9.44328 0.620615 6.59228 
72 3 10.9371 2.1979 8.0655 
77 3 6.57475 3.63325 6.68125 
78 3 8.04103 5.06295 8.01718 
79 3 9.42606 3.61286 6.54807 
80 3 10.915 5.08411 8.12069 
101 3 6.52409 0.885152 9.38782 
102 3 7.96266 2.36163 10.9804 
103 3 9.44033 0.779836 9.38452 
104 3 10.7646 2.10064 10.882 
109 3 6.61996 3.66254 9.44327 
110 3 7.963 5.03509 10.9653 
111 3 9.44517 3.79959 9.43922 
112 3 10.7948 5.15646 10.8987 
81 3 0.767351 6.58594 6.60521 
82 3 2.22359 8.02659 7.98568 
83 3 3.66515 6.56468 6.55708 
84 3 5.13783 8.00589 8.00234 
89 3 0.803629 9.46841 6.53065 
90 3 2.11497 10.9102 8.06298 
91 3 3.59618 9.47574 6.6171 
92 3 5.15538 10.9148 7.89644 
113 3 0.760033 6.5151 9.4639 
114 3 2.12873 8.08288 10.846 
115 3 3.83036 6.48522 9.23259 
116 3 5.03635 8.13458 10.8664 
121 3 0.742842 9.48692 9.46004 
122 3 2.29821 10.9008 10.7573 
123 3 3.62512 9.48555 9.36961 
124 3 5.186 10.8254 10.7864 
85 3 6.58986 6.59521 6.6773 
86 3 8.04912 7.89059 8.06471 
87 3 9.427 6.4775 6.5239 
88 3 10.8433 8.05382 8.01919 
93 3 6.60858 9.35824 6.57367 
94 3 7.92275 10.9599 8.00675 
95 3 9.35352 9.49812 6.57233 
96 3 11.0279 10.8732 7.89557 
117 3 6.67043 6.56162 9.5578 
118 3 8.17691 7.9952 10.9596 
119 3 9.51753 6.5857 9.47963 
120 3 10.8529 8.06172 10.8051 
125 3 6.54747 9.27131 9.4158 
126 4 8.01633 10.827 10.9037 
127 3 9.49992 9.57127 9.35154 
128 3 10.8278 10.9658 10.8928 
ITEM: TIMESTEP
12000
ITEM: NUMBER OF ATOMS
128
ITEM: BOX BOUNDS pp pp pp
7.7667310676086176e-02 1.1602332689323942e+01
6.7569247155287129e-02 1.1612430752844649e+01
9.4080670487911883e-02 1.1585919329512054e+01
ITEM: ATOMS id type x y z 
1 3 0.752912 0.781113 0.831366 
2 1 2.17874 2.34419 2.34211 
3 3 3.57235 0.998115 0.917944 
4 3 5.31282 2.05942 2.43745 
9 3 0.826405 3.68635 0.891992 
10 3 2.28893 5.10631 2.28221 
11 3 3.61391 3.61826 0.867312 
12 3 5.0669 5.13911 2.18494 
33 3 0.740219 0.752386 3.62046 
34 3 2.10396 2.27163 5.09149 
35 3 3.70094 0.833286 3.59408 
36 3 5.11884 2.25663 5.22611 
41 3 0.88056 3.71828 3.71273 
42 3 2.22406 5.15868 5.13725 
43 3 3.58438 3.66454 3.70014 
44 3 5.09157 5.01871 5.05818 
5 3 6.59476 0.723094 0.909596 
6 3 8.03179 2.29001 2.29716 
7 3 9.48777 0.816654 0.85692 
8 3 10.9351 2.27152 2.23185 
13 3 6.46772 3.66593 0.817401 
14 3 8.02457 4.90253 2.23144 
15 3 9.41261 3.52603 0.672833 
16 3 10.919 5.07977 2.26743 
37 3 6.69182 0.628797 3.65219 
38 3 8.09116 2.17918 5.20083 
39 3 9.48476 0.741069 3.75033 
40 3 10.9313 2.11456 5.1089 
45 3 6.48959 3.56172 3.78818 
46 3 7.838 5.13164 5.03849 
47 3 9.57486 3.65328 3.65809 
48 3 10.7933 4.98388 5.09311 
17 3 0.821806 6.56489 0.806832 
18 3 2.20802 7.93051 2.14451 
19 3 3.74145 6.48268 0.74426 
20 3 5.15295 8.08785 2.23051 