LAMMPS (22 Aug 2018)
Running on 4 partitions of processors
Step W0 W1 W2 W3
501700946252 -nan -nan inf inf -nan  0.000000 0.000000 0.000000 0.000000 = 0  |  0.250 0.250 0.250 0.250 | 0.000 5 
51  1 0.000 0.000 0.000 0.000 0.000  108.000000 108.000000 128.000000 108.000000 = 452  |  0.250 0.250 0.250 0.250 | -2007.863 5 
52  1 0.000 0.000 0.000 0.000 0.000  108.000000 108.000000 128.000000 108.000000 = 452  |  0.250 0.250 0.250 0.250 | -2008.685 5 
53  1 0.000 0.000 0.000 0.000 0.000  108.000000 108.000000 128.000000 108.000000 = 452  |  0.250 0.250 0.250 0.250 | -2008.684 5 
54  1 0.000 0.118 0.000 0.000 0.000  108.000000 108.000000 128.000000 108.000000 = 452  |  0.250 0.250 0.250 0.250 | -2008.569 5 
55  0 0.000 0.118 0.000 0.000 0.000  108.000000 108.000000 128.000000 108.000000 = 452  |  0.250 0.250 0.250 0.250 | -2008.831 5 
56  1 0.000 0.095 0.000 0.000 0.000  108.000000 108.000000 128.000000 108.000000 = 452  |  0.250 0.250 0.250 0.250 | -2008.862 5 
57  0 0.000 0.095 0.000 0.000 0.000  108.000000 108.000000 128.000000 108.000000 = 452  |  0.250 0.250 0.250 0.250 | -2008.897 5 
58  1 0.000 0.160 0.000 0.000 0.000  108.000000 108.000000 128.000000 108.000000 = 452  |  0.250 0.250 0.250 0.250 | -2007.915 5 
59  1 0.000 0.138 0.000 0.000 0.000  108.000000 108.000000 128.000000 108.000000 = 452  |  0.250 0.250 0.250 0.250 | -2007.462 5 
60  1 0.000 0.121 0.000 0.000 0.000  108.000000 108.000000 128.000000 108.000000 = 452  |  0.250 0.250 0.250 0.250 | -2008.726 5 
61  1 0.000 0.108 0.000 0.000 0.000  108.000000 108.000000 128.000000 108.000000 = 452  |  0.250 0.250 0.250 0.250 | -2008.302 5 
62  0 0.000 0.108 0.000 0.000 0.000  108.000000 108.000000 128.000000 108.000000 = 452  |  0.250 0.250 0.250 0.250 | -2008.354 5 
63  1 0.000 0.098 0.000 0.000 0.000  108.000000 108.000000 128.000000 108.000000 = 452  |  0.250 0.250 0.250 0.250 | -2007.826 5 
64  1 0.000 0.089 0.000 0.000 0.000  108.000000 108.000000 128.000000 108.000000 = 452  |  0.250 0.250 0.250 0.250 | -2008.548 5 
65  1 0.000 0.082 0.000 0.000 0.000  108.000000 108.000000 128.000000 108.000000 = 452  |  0.250 0.250 0.250 0.250 | -2007.881 5 
66  0 0.118 0.082 0.000 0.000 0.000  108.000000 108.000000 128.000000 108.000000 = 452  |  0.250 0.250 0.250 0.250 | -2010.427 5 
67  1 0.118 0.075 0.000 0.000 0.000  108.000000 108.000000 128.000000 108.000000 = 452  |  0.250 0.250 0.250 0.250 | -2008.641 5 
68  0 0.095 0.075 0.000 0.000 0.000  108.000000 108.000000 128.000000 108.000000 = 452  |  0.250 0.250 0.250 0.250 | -2008.910 5 
69  1 0.095 0.070 0.000 0.000 0.000  108.000000 108.000000 128.000000 108.000000 = 452  |  0.250 0.250 0.250 0.250 | -2008.749 5 
70  1 0.095 0.066 0.000 0.000 0.000  108.000000 108.000000 128.000000 108.000000 = 452  |  0.250 0.250 0.250 0.250 | -2007.309 5 
71  1 0.095 0.062 0.000 0.000 0.000  108.000000 108.000000 128.000000 108.000000 = 452  |  0.250 0.250 0.250 0.250 | -2008.713 5 
72  0 0.080 0.062 0.000 0.000 0.000  108.000000 108.000000 128.000000 108.000000 = 452  |  0.250 0.250 0.250 0.250 | -2008.941 5 
73  1 0.080 0.058 0.000 0.000 0.000  108.000000 108.000000 128.000000 108.000000 = 452  |  0.250 0.250 0.250 0.250 | -2008.780 5 
74  1 0.080 0.055 0.000 0.000 0.000  108.000000 108.000000 128.000000 108.000000 = 452  |  0.250 0.250 0.250 0.250 | -2009.059 5 
75  1 0.080 0.078 0.000 0.000 0.000  108.000000 108.000000 128.000000 108.000000 = 452  |  0.250 0.250 0.250 0.250 | -2009.569 5 
76  1 0.080 0.074 0.000 0.000 0.000  108.000000 108.000000 128.000000 108.000000 = 452  |  0.250 0.250 0.250 0.250 | -2011.196 5 
77  0 0.069 0.074 0.000 0.000 0.000  108.000000 108.000000 128.000000 108.000000 = 452  |  0.250 0.250 0.250 0.250 | -2010.277 5 
78  1 0.069 0.071 0.000 0.000 0.000  108.000000 108.000000 128.000000 108.000000 = 452  |  0.250 0.250 0.250 0.250 | -2011.381 5 
79  0 0.061 0.071 0.000 0.000 0.000  108.000000 108.000000 128.000000 108.000000 = 452  |  0.250 0.250 0.250 0.250 | -2010.018 5 
80  1 0.061 0.067 0.000 0.000 0.000  108.000000 108.000000 128.000000 108.000000 = 452  |  0.250 0.250 0.250 0.250 | -2009.858 5 
81  0 0.054 0.067 0.000 0.000 0.000  108.000000 108.000000 128.000000 108.000000 = 452  |  0.250 0.250 0.250 0.250 | -2010.998 5 
82  1 0.054 0.065 0.000 0.000 0.000  108.000000 108.000000 128.000000 108.000000 = 452  |  0.250 0.250 0.250 0.250 | -2012.028 5 
83  1 0.054 0.062 0.000 0.000 0.000  108.000000 108.000000 128.000000 108.000000 = 452  |  0.250 0.250 0.250 0.250 | -2010.202 5 
84  0 0.049 0.062 0.000 0.000 0.000  108.000000 108.000000 128.000000 108.000000 = 452  |  0.250 0.250 0.250 0.250 | -2011.594 5 
85  1 0.049 0.079 0.000 0.000 0.000  108.000000 108.000000 128.000000 108.000000 = 452  |  0.250 0.250 0.250 0.250 | -2011.685 5 
86  1 0.049 0.076 0.000 0.000 0.000  108.000000 108.000000 128.000000 108.000000 = 452  |  0.250 0.250 0.250 0.250 | -2011.204 5 
87  1 0.049 0.092 0.000 0.000 0.000  108.000000 108.000000 128.000000 108.000000 = 452  |  0.250 0.250 0.250 0.250 | -2010.367 5 
88  1 0.049 0.088 0.000 0.000 0.000  108.000000 108.000000 128.000000 108.000000 = 452  |  0.250 0.250 0.250 0.250 | -2011.524 5 
89  1 0.049 0.085 0.000 0.000 0.000  108.000000 108.000000 128.000000 108.000000 = 452  |  0.250 0.250 0.250 0.250 | -2011.214 5 
90  1 0.049 0.099 0.000 0.000 0.000  108.000000 108.000000 128.000000 108.000000 = 452  |  0.250 0.250 0.250 0.250 | -2011.758 5 
91  0 0.067 0.099 0.000 0.000 0.000  108.000000 108.000000 128.000000 108.000000 = 452  |  0.250 0.250 0.250 0.250 | -2011.662 5 
92  0 0.082 0.099 0.000 0.000 0.000  108.000000 108.000000 128.000000 108.000000 = 452  |  0.250 0.250 0.250 0.250 | -2011.052 5 
93  1 0.082 0.096 0.000 0.000 0.000  108.000000 108.000000 128.000000 108.000000 = 452  |  0.250 0.250 0.250 0.250 | -2010.161 5 
94  0 0.075 0.096 0.000 0.000 0.000  108.000000 108.000000 128.000000 108.000000 = 452  |  0.250 0.250 0.250 0.250 | -2011.436 5 
95  1 0.075 0.093 0.000 0.000 0.000  108.000000 108.000000 128.000000 108.000000 = 452  |  0.250 0.250 0.250 0.250 | -2010.196 5 
96  1 0.075 0.090 0.000 0.000 0.000  108.000000 108.000000 128.000000 108.000000 = 452  |  0.250 0.250 0.250 0.250 | -2009.252 5 
97  0 0.070 0.090 0.000 0.000 0.000  108.000000 108.000000 128.000000 108.000000 = 452  |  0.250 0.250 0.250 0.250 | -2010.349 5 
98  0 0.082 0.090 0.000 0.000 0.000  108.000000 108.000000 128.000000 108.000000 = 452  |  0.250 0.250 0.250 0.250 | -2011.848 5 
99  0 0.077 0.090 0.000 0.000 0.000  108.000000 108.000000 128.000000 108.000000 = 452  |  0.250 0.250 0.250 0.250 | -2010.933 5 
100  1 0.077 0.102 0.000 0.000 0.000  108.000000 108.000000 128.000000 108.000000 = 452  |  0.250 0.250 0.250 0.250 | -2010.324 5 
101  0 0.072 0.102 0.000 0.000 0.000  108.000000 108.000000 128.000000 108.000000 = 452  |  0.250 0.250 0.250 0.250 | -2010.602 5 
102  1 0.072 0.099 0.000 0.000 0.000  108.000000 108.000000 128.000000 108.000000 = 452  |  0.250 0.250 0.250 0.250 | -2011.221 5 
103  1 0.072 0.097 0.000 0.000 0.000  108.000000 108.000000 128.000000 108.000000 = 452  |  0.250 0.250 0.250 0.250 | -2009.696 5 
104  1 0.072 0.107 0.000 0.000 0.000  108.000000 108.000000 128.000000 108.000000 = 452  |  0.250 0.250 0.250 0.250 | -2010.957 5 
105  1 0.072 0.105 0.000 0.000 0.000  108.000000 108.000000 128.000000 108.000000 = 452  |  0.250 0.250 0.250 0.250 | -2010.855 5 
106  1 0.072 0.102 0.000 0.000 0.000  108.000000 108.000000 128.000000 108.000000 = 452  |  0.250 0.250 0.250 0.250 | -2010.632 5 
107  0 0.110 0.102 0.000 0.000 0.000  108.000000 108.000000 128.000000 108.000000 = 452  |  0.250 0.250 0.250 0.250 | -2010.796 5 
108  0 0.143 0.102 0.000 0.000 0.000  108.000000 108.000000 128.000000 108.000000 = 452  |  0.250 0.250 0.250 0.250 | -2010.117 5 
109  1 0.143 0.112 0.000 0.000 0.000  108.000000 108.000000 128.000000 108.000000 = 452  |  0.250 0.250 0.250 0.250 | -2009.989 5 
110  1 0.143 0.121 0.000 0.000 0.000  108.000000 108.000000 128.000000 108.000000 = 452  |  0.250 0.250 0.250 0.250 | -2010.911 5 
111  0 0.148 0.121 0.000 0.000 0.000  108.000000 108.000000 128.000000 108.000000 = 452  |  0.250 0.250 0.250 0.250 | -2010.717 5 
112  0 0.141 0.121 0.000 0.000 0.000  108.000000 108.000000 128.000000 108.000000 = 452  |  0.250 0.250 0.250 0.250 | -2010.577 5 
113  1 0.141 0.118 0.000 0.000 0.000  108.000000 108.000000 128.000000 108.000000 = 452  |  0.250 0.250 0.250 0.250 | -2008.937 5 
114  1 0.141 0.116 0.000 0.000 0.000  108.000000 108.000000 128.000000 108.000000 = 452  |  0.250 0.250 0.250 0.250 | -2011.428 5 
115  1 0.141 0.113 0.000 0.000 0.000  108.000000 108.000000 128.000000 108.000000 = 452  |  0.250 0.250 0.250 0.250 | -2010.130 5 
116  1 0.141 0.122 0.000 0.000 0.000  108.000000 108.000000 128.000000 108.000000 = 452  |  0.250 0.250 0.250 0.250 | -2011.105 5 
117  1 0.141 0.119 0.000 0.000 0.000  108.000000 108.000000 128.000000 108.000000 = 452  |  0.250 0.250 0.250 0.250 | -2010.797 5 
118  1 0.141 0.127 0.000 0.000 0.000  108.000000 108.000000 128.000000 108.000000 = 452  |  0.250 0.250 0.250 0.250 | -2010.979 5 
119  1 0.141 0.124 0.000 0.000 0.000  108.000000 108.000000 128.000000 108.000000 = 452  |  0.250 0.250 0.250 0.250 | -2010.888 5 
120  1 0.141 0.122 0.000 0.000 0.000  108.000000 108.000000 128.000000 108.000000 = 452  |  0.250 0.250 0.250 0.250 | -2012.113 5 
121  0 0.135 0.122 0.000 0.000 0.000  108.000000 108.000000 128.000000 108.000000 = 452  |  0.250 0.250 0.250 0.250 | -2011.945 5 
122  1 0.135 0.119 0.000 0.000 0.000  108.000000 108.000000 128.000000 108.000000 = 452  |  0.250 0.250 0.250 0.250 | -2011.412 5 
123  0 0.129 0.119 0.000 0.000 0.000  108.000000 108.000000 128.000000 108.000000 = 452  |  0.250 0.250 0.250 0.250 | -2011.236 5 
124  1 0.129 0.127 0.000 0.000 0.000  108.000000 108.000000 128.000000 108.000000 = 452  |  0.250 0.250 0.250 0.250 | -2012.480 5 
125  1 0.129 0.124 0.000 0.000 0.000  108.000000 108.000000 128.000000 108.000000 = 452  |  0.250 0.250 0.250 0.250 | -2014.213 5 
126  1 0.129 0.131 0.000 0.000 0.000  108.000000 108.000000 128.000000 108.000000 = 452  |  0.250 0.250 0.250 0.250 | -2013.647 5 
127  1 0.129 0.138 0.000 0.000 0.000  108.000000 108.000000 128.000000 108.000000 = 452  |  0.250 0.250 0.250 0.250 | -2013.323 5 
128  1 0.129 0.136 0.000 0.000 0.000  108.000000 108.000000 128.000000 108.000000 = 452  |  0.250 0.250 0.250 0.250 | -2014.135 5 
129  0 0.144 0.136 0.000 0.000 0.000  108.000000 108.000000 128.000000 108.000000 = 452  |  0.250 0.250 0.250 0.250 | -2014.088 5 
130  0 0.158 0.136 0.000 0.000 0.000  108.000000 108.000000 128.000000 108.000000 = 452  |  0.250 0.250 0.250 0.250 | -2015.001 5 
131  0 0.152 0.136 0.000 0.000 0.000  108.000000 108.000000 128.000000 108.000000 = 452  |  0.250 0.250 0.250 0.250 | -2014.555 5 
132  0 0.147 0.136 0.000 0.000 0.000  108.000000 108.000000 128.000000 108.000000 = 452  |  0.250 0.250 0.250 0.250 | -2014.375 5 
133  1 0.147 0.133 0.000 0.000 0.000  108.000000 108.000000 128.000000 108.000000 = 452  |  0.250 0.250 0.250 0.250 | -2014.247 5 
134  1 0.147 0.140 0.000 0.000 0.000  108.000000 108.000000 128.000000 108.000000 = 452  |  0.250 0.250 0.250 0.250 | -2013.506 5 
135  1 0.147 0.137 0.000 0.000 0.000  108.000000 108.000000 128.000000 108.000000 = 452  |  0.250 0.250 0.250 0.250 | -2015.865 5 
136  1 0.147 0.143 0.000 0.000 0.000  108.000000 108.000000 128.000000 108.000000 = 452  |  0.250 0.250 0.250 0.250 | -2015.865 5 
137  1 0.147 0.141 0.000 0.000 0.000  108.000000 108.000000 128.000000 108.000000 = 452  |  0.250 0.250 0.250 0.250 | -2016.805 5 
138  1 0.147 0.139 0.000 0.000 0.000  108.000000 108.000000 128.000000 108.000000 = 452  |  0.250 0.250 0.250 0.250 | -2014.461 5 
139  1 0.147 0.137 0.000 0.000 0.000  108.000000 108.000000 128.000000 108.000000 = 452  |  0.250 0.250 0.250 0.250 | -2016.924 5 
140  1 0.147 0.134 0.000 0.000 0.000  108.000000 108.000000 128.000000 108.000000 = 452  |  0.250 0.250 0.250 0.250 | -2016.471 5 
141  0 0.159 0.134 0.000 0.000 0.000  108.000000 108.000000 128.000000 108.000000 = 452  |  0.250 0.250 0.250 0.250 | -2016.234 5 
142  1 0.159 0.132 0.000 0.000 0.000  108.000000 108.000000 128.000000 108.000000 = 452  |  0.250 0.250 0.250 0.250 | -2016.043 5 
143  1 0.159 0.130 0.000 0.000 0.000  108.000000 108.000000 128.000000 108.000000 = 452  |  0.250 0.250 0.250 0.250 | -2016.964 5 
144  1 0.159 0.128 0.000 0.000 0.000  108.000000 108.000000 128.000000 108.000000 = 452  |  0.250 0.250 0.250 0.250 | -2018.257 5 
145  1 0.159 0.126 0.000 0.000 0.000  108.000000 108.000000 128.000000 108.000000 = 452  |  0.250 0.250 0.250 0.250 | -2016.520 5 
146  1 0.159 0.125 0.000 0.000 0.000  108.000000 108.000000 128.000000 108.000000 = 452  |  0.250 0.250 0.250 0.250 | -2016.721 5 
147  1 0.159 0.130 0.000 0.000 0.000  108.000000 108.000000 128.000000 108.000000 = 452  |  0.250 0.250 0.250 0.250 | -2016.772 5 
148  0 0.162 0.130 0.000 0.000 0.000  108.000000 108.000000 128.000000 108.000000 = 452  |  0.250 0.250 0.250 0.250 | -2018.245 5 
149  1 0.162 0.128 0.000 0.000 0.000  108.000000 108.000000 128.000000 108.000000 = 452  |  0.250 0.250 0.250 0.250 | -2018.338 5 
150  1 0.162 0.126 0.000 0.000 0.000  108.000000 108.000000 128.000000 108.000000 = 452  |  0.250 0.250 0.250 0.250 | -2018.117 5 
151  0 0.157 0.126 0.000 0.000 0.000  108.000000 108.000000 128.000000 108.000000 = 452  |  0.250 0.250 0.250 0.250 | -2017.906 5 
152  1 0.157 0.125 0.000 0.000 0.000  108.000000 108.000000 128.000000 108.000000 = 452  |  0.250 0.250 0.250 0.250 | -2019.089 5 
153  0 0.160 0.125 0.000 0.000 0.000  108.000000 108.000000 128.000000 108.000000 = 452  |  0.250 0.250 0.250 0.250 | -2019.951 5 
154  0 0.155 0.125 0.000 0.000 0.000  108.000000 108.000000 128.000000 108.000000 = 452  |  0.250 0.250 0.250 0.250 | -2018.816 5 
155  1 0.155 0.123 0.000 0.000 0.000  108.000000 108.000000 128.000000 108.000000 = 452  |  0.250 0.250 0.250 0.250 | -2017.302 5 
156  1 0.155 0.121 0.000 0.000 0.000  108.000000 108.000000 128.000000 108.000000 = 452  |  0.250 0.250 0.250 0.250 | -2018.534 5 
157  1 0.155 0.126 0.000 0.000 0.000  108.000000 108.000000 128.000000 108.000000 = 452  |  0.250 0.250 0.250 0.250 | -2018.979 5 
158  1 0.155 0.125 0.000 0.000 0.000  108.000000 108.000000 128.000000 108.000000 = 452  |  0.250 0.250 0.250 0.250 | -2019.067 5 
159  1 0.155 0.123 0.000 0.000 0.000  108.000000 108.000000 128.000000 108.000000 = 452  |  0.250 0.250 0.250 0.250 | -2018.067 5 
160  0 0.158 0.123 0.000 0.000 0.000  108.000000 108.000000 128.000000 108.000000 = 452  |  0.250 0.250 0.250 0.250 | -2019.978 5 
161  1 0.158 0.128 0.000 0.000 0.000  108.000000 108.000000 128.000000 108.000000 = 452  |  0.250 0.250 0.250 0.250 | -2019.641 5 
162  1 0.158 0.126 0.000 0.000 0.000  108.000000 108.000000 128.000000 108.000000 = 452  |  0.250 0.250 0.250 0.250 | -2018.055 5 
163  0 0.168 0.126 0.000 0.000 0.000  108.000000 108.000000 128.000000 108.000000 = 452  |  0.250 0.250 0.250 0.250 | -2019.207 5 
164  1 0.168 0.125 0.000 0.000 0.000  108.000000 108.000000 128.000000 108.000000 = 452  |  0.250 0.250 0.250 0.250 | -2019.703 5 
165  0 0.163 0.125 0.000 0.000 0.000  108.000000 108.000000 128.000000 108.000000 = 452  |  0.250 0.250 0.250 0.250 | -2019.608 5 
166  0 0.159 0.125 0.000 0.000 0.000  108.000000 108.000000 128.000000 108.000000 = 452  |  0.250 0.250 0.250 0.250 | -2018.506 5 
167  0 0.161 0.125 0.000 0.000 0.000  108.000000 108.000000 128.000000 108.000000 = 452  |  0.250 0.250 0.250 0.250 | -2017.850 5 
168  0 0.176 0.125 0.000 0.000 0.000  108.000000 108.000000 128.000000 108.000000 = 452  |  0.250 0.250 0.250 0.250 | -2017.847 5 
169  1 0.176 0.123 0.000 0.000 0.000  108.000000 108.000000 128.000000 108.000000 = 452  |  0.250 0.250 0.250 0.250 | -2019.642 5 
170  0 0.172 0.123 0.000 0.000 0.000  108.000000 108.000000 128.000000 108.000000 = 452  |  0.250 0.250 0.250 0.250 | -2019.283 5 
171  1 0.172 0.122 0.000 0.000 0.000  108.000000 108.000000 128.000000 108.000000 = 452  |  0.250 0.250 0.250 0.250 | -2018.183 5 
172  1 0.172 0.120 0.000 0.000 0.000  108.000000 108.000000 128.000000 108.000000 = 452  |  0.250 0.250 0.250 0.250 | -2018.619 5 
173  0 0.174 0.120 0.000 0.000 0.000  108.000000 108.000000 128.000000 108.000000 = 452  |  0.250 0.250 0.250 0.250 | -2017.822 5 
174  1 0.174 0.119 0.000 0.000 0.000  108.000000 108.000000 128.000000 108.000000 = 452  |  0.250 0.250 0.250 0.250 | -2017.492 5 
175  1 0.174 0.123 0.000 0.000 0.000  108.000000 108.000000 128.000000 108.000000 = 452  |  0.250 0.250 0.250 0.250 | -2018.543 5 
176  0 0.170 0.123 0.000 0.000 0.000  108.000000 108.000000 128.000000 108.000000 = 452  |  0.250 0.250 0.250 0.250 | -2019.112 5 
177  1 0.170 0.122 0.000 0.000 0.000  108.000000 108.000000 128.000000 108.000000 = 452  |  0.250 0.250 0.250 0.250 | -2019.722 5 
178  1 0.170 0.120 0.000 0.000 0.000  108.000000 108.000000 128.000000 108.000000 = 452  |  0.250 0.250 0.250 0.250 | -2018.579 5 
179  1 0.170 0.119 0.000 0.000 0.000  108.000000 108.000000 128.000000 108.000000 = 452  |  0.250 0.250 0.250 0.250 | -2018.740 5 
180  0 0.172 0.119 0.000 0.000 0.000  108.000000 108.000000 128.000000 108.000000 = 452  |  0.250 0.250 0.250 0.250 | -2017.717 5 
181  1 0.172 0.118 0.000 0.000 0.000  108.000000 108.000000 128.000000 108.000000 = 452  |  0.250 0.250 0.250 0.250 | -2019.545 5 
182  0 0.168 0.118 0.000 0.000 0.000  108.000000 108.000000 128.000000 108.000000 = 452  |  0.250 0.250 0.250 0.250 | -2020.020 5 
183  1 0.168 0.116 0.000 0.000 0.000  108.000000 108.000000 128.000000 108.000000 = 452  |  0.250 0.250 0.250 0.250 | -2018.918 5 
184  0 0.164 0.116 0.000 0.000 0.000  108.000000 108.000000 128.000000 108.000000 = 452  |  0.250 0.250 0.250 0.250 | -2019.937 5 
185  0 0.166 0.116 0.000 0.000 0.000  108.000000 108.000000 128.000000 108.000000 = 452  |  0.250 0.250 0.250 0.250 | -2019.554 5 
186  1 0.166 0.121 0.000 0.000 0.000  108.000000 108.000000 128.000000 108.000000 = 452  |  0.250 0.250 0.250 0.250 | -2019.272 5 
187  1 0.166 0.119 0.000 0.000 0.000  108.000000 108.000000 128.000000 108.000000 = 452  |  0.250 0.250 0.250 0.250 | -2019.624 5 
188  0 0.162 0.119 0.000 0.000 0.000  108.000000 108.000000 128.000000 108.000000 = 452  |  0.250 0.250 0.250 0.250 | -2019.860 5 
189  0 0.159 0.119 0.000 0.000 0.000  108.000000 108.000000 128.000000 108.000000 = 452  |  0.250 0.250 0.250 0.250 | -2019.669 5 
190  0 0.161 0.119 0.000 0.000 0.000  108.000000 108.000000 128.000000 108.000000 = 452  |  0.250 0.250 0.250 0.250 | -2020.675 5 
191  1 0.161 0.118 0.000 0.000 0.000  108.000000 108.000000 128.000000 108.000000 = 452  |  0.250 0.250 0.250 0.250 | -2019.799 5 
192  1 0.161 0.122 0.000 0.000 0.000  108.000000 108.000000 128.000000 108.000000 = 452  |  0.250 0.250 0.250 0.250 | -2020.382 5 
193  0 0.162 0.122 0.000 0.000 0.000  108.000000 108.000000 128.000000 108.000000 = 452  |  0.250 0.250 0.250 0.250 | -2021.061 5 
194  1 0.162 0.126 0.000 0.000 0.000  108.000000 108.000000 128.000000 108.000000 = 452  |  0.250 0.250 0.250 0.250 | -2022.341 5 
195  0 0.159 0.126 0.000 0.000 0.000  108.000000 108.000000 128.000000 108.000000 = 452  |  0.250 0.250 0.250 0.250 | -2021.423 5 
196  0 0.156 0.126 0.000 0.000 0.000  108.000000 108.000000 128.000000 108.000000 = 452  |  0.250 0.250 0.250 0.250 | -2020.391 5 
197  1 0.156 0.125 0.000 0.000 0.000  108.000000 108.000000 128.000000 108.000000 = 452  |  0.250 0.250 0.250 0.250 | -2020.381 5 
198  1 0.156 0.129 0.000 0.000 0.000  108.000000 108.000000 128.000000 108.000000 = 452  |  0.250 0.250 0.250 0.250 | -2021.692 5 
199  1 0.156 0.127 0.000 0.000 0.000  108.000000 108.000000 128.000000 108.000000 = 452  |  0.250 0.250 0.250 0.250 | -2020.716 5 
200  1 0.156 0.126 0.000 0.000 0.000  108.000000 108.000000 128.000000 108.000000 = 452  |  0.250 0.250 0.250 0.250 | -2020.613 5 
201  0 0.158 0.126 0.000 0.000 0.000  108.000000 108.000000 128.000000 108.000000 = 452  |  0.250 0.250 0.250 0.250 | -2022.089 5 
202  1 0.158 0.125 0.000 0.000 0.000  108.000000 108.000000 128.000000 108.000000 = 452  |  0.250 0.250 0.250 0.250 | -2021.888 5 
203  1 0.158 0.123 0.000 0.000 0.000  108.000000 108.000000 128.000000 108.000000 = 452  |  0.250 0.250 0.250 0.250 | -2021.891 5 
204  1 0.158 0.122 0.000 0.000 0.000  108.000000 108.000000 128.000000 108.000000 = 452  |  0.250 0.250 0.250 0.250 | -2022.379 5 
205  1 0.158 0.121 0.000 0.000 0.000  108.000000 108.000000 128.000000 108.000000 = 452  |  0.250 0.250 0.250 0.250 | -2022.281 5 
206  1 0.158 0.120 0.000 0.000 0.000  108.000000 108.000000 128.000000 108.000000 = 452  |  0.250 0.250 0.250 0.250 | -2021.408 5 
207  0 0.155 0.120 0.000 0.000 0.000  108.000000 108.000000 128.000000 108.000000 = 452  |  0.250 0.250 0.250 0.250 | -2021.588 5 
208  1 0.155 0.119 0.000 0.000 0.000  108.000000 108.000000 128.000000 108.000000 = 452  |  0.250 0.250 0.250 0.250 | -2021.131 5 
209  0 0.157 0.119 0.000 0.000 0.000  108.000000 108.000000 128.000000 108.000000 = 452  |  0.250 0.250 0.250 0.250 | -2021.317 5 
210  1 0.157 0.118 0.000 0.000 0.000  108.000000 108.000000 128.000000 108.000000 = 452  |  0.250 0.250 0.250 0.250 | -2021.910 5 
211  1 0.157 0.117 0.000 0.000 0.000  108.000000 108.000000 128.000000 108.000000 = 452  |  0.250 0.250 0.250 0.250 | -2022.302 5 
212  1 0.157 0.115 0.000 0.000 0.000  108.000000 108.000000 128.000000 108.000000 = 452  |  0.250 0.250 0.250 0.250 | -2020.841 5 
213  1 0.157 0.114 0.000 0.000 0.000  108.000000 108.000000 128.000000 108.000000 = 452  |  0.250 0.250 0.250 0.250 | -2021.956 5 
214  1 0.157 0.118 0.000 0.000 0.000  108.000000 108.000000 128.000000 108.000000 = 452  |  0.250 0.250 0.250 0.250 | -2021.290 5 
215  0 0.154 0.118 0.000 0.000 0.000  108.000000 108.000000 128.000000 108.000000 = 452  |  0.250 0.250 0.250 0.250 | -2022.089 5 
216  0 0.151 0.118 0.000 0.000 0.000  108.000000 108.000000 128.000000 108.000000 = 452  |  0.250 0.250 0.250 0.250 | -2021.781 5 
217  0 0.148 0.118 0.000 0.000 0.000  108.000000 108.000000 128.000000 108.000000 = 452  |  0.250 0.250 0.250 0.250 | -2021.191 5 
218  1 0.148 0.117 0.000 0.000 0.000  108.000000 108.000000 128.000000 108.000000 = 452  |  0.250 0.250 0.250 0.250 | -2021.319 5 
219  0 0.150 0.117 0.000 0.000 0.000  108.000000 108.000000 128.000000 108.000000 = 452  |  0.250 0.250 0.250 0.250 | -2021.863 5 
220  1 0.150 0.120 0.000 0.000 0.000  108.000000 108.000000 128.000000 108.000000 = 452  |  0.250 0.250 0.250 0.250 | -2022.959 5 
221  1 0.150 0.119 0.000 0.000 0.000  108.000000 108.000000 128.000000 108.000000 = 452  |  0.250 0.250 0.250 0.250 | -2021.114 5 
222  1 0.150 0.118 0.000 0.000 0.000  108.000000 108.000000 128.000000 108.000000 = 452  |  0.250 0.250 0.250 0.250 | -2020.836 5 
223  0 0.148 0.118 0.000 0.000 0.000  108.000000 108.000000 128.000000 108.000000 = 452  |  0.250 0.250 0.250 0.250 | -2020.569 5 
224  0 0.154 0.118 0.000 0.000 0.000  108.000000 108.000000 128.000000 108.000000 = 452  |  0.250 0.250 0.250 0.250 | -2020.344 5 
225  1 0.154 0.117 0.000 0.000 0.000  108.000000 108.000000 128.000000 108.000000 = 452  |  0.250 0.250 0.250 0.250 | -2021.539 5 
226  1 0.154 0.116 0.000 0.000 0.000  108.000000 108.000000 128.000000 108.000000 = 452  |  0.250 0.250 0.250 0.250 | -2021.038 5 
227  1 0.154 0.115 0.000 0.000 0.000  108.000000 108.000000 128.000000 108.000000 = 452  |  0.250 0.250 0.250 0.250 | -2022.235 5 
228  1 0.154 0.114 0.000 0.000 0.000  108.000000 108.000000 128.000000 108.000000 = 452  |  0.250 0.250 0.250 0.250 | -2021.313 5 
229  1 0.154 0.113 0.000 0.000 0.000  108.000000 108.000000 128.000000 108.000000 = 452  |  0.250 0.250 0.250 0.250 | -2021.603 5 
230  1 0.154 0.112 0.000 0.000 0.000  108.000000 108.000000 128.000000 108.000000 = 452  |  0.250 0.250 0.250 0.250 | -2021.150 5 
231  1 0.154 0.111 0.000 0.000 0.000  108.000000 108.000000 128.000000 108.000000 = 452  |  0.250 0.250 0.250 0.250 | -2022.599 5 
232  1 0.154 0.115 0.000 0.000 0.000  108.000000 108.000000 128.000000 108.000000 = 452  |  0.250 0.250 0.250 0.250 | -2021.186 5 
233  1 0.154 0.114 0.000 0.000 0.000  108.000000 108.000000 128.000000 108.000000 = 452  |  0.250 0.250 0.250 0.250 | -2021.938 5 
234  0 0.151 0.114 0.000 0.000 0.000  108.000000 108.000000 128.000000 108.000000 = 452  |  0.250 0.250 0.250 0.250 | -2022.022 5 
235  0 0.157 0.114 0.000 0.000 0.000  108.000000 108.000000 128.000000 108.000000 = 452  |  0.250 0.250 0.250 0.250 | -2021.264 5 
236  0 0.154 0.114 0.000 0.000 0.000  108.000000 108.000000 128.000000 108.000000 = 452  |  0.250 0.250 0.250 0.250 | -2020.549 5 
237  0 0.156 0.114 0.000 0.000 0.000  108.000000 108.000000 128.000000 108.000000 = 452  |  0.250 0.250 0.250 0.250 | -2022.282 5 
238  1 0.156 0.117 0.000 0.000 0.000  108.000000 108.000000 128.000000 108.000000 = 452  |  0.250 0.250 0.250 0.250 | -2021.412 5 
239  0 0.161 0.117 0.000 0.000 0.000  108.000000 108.000000 128.000000 108.000000 = 452  |  0.250 0.250 0.250 0.250 | -2021.996 5 
240  1 0.161 0.120 0.000 0.000 0.000  108.000000 108.000000 128.000000 108.000000 = 452  |  0.250 0.250 0.250 0.250 | -2022.538 5 
241  1 0.161 0.119 0.000 0.000 0.000  108.000000 108.000000 128.000000 108.000000 = 452  |  0.250 0.250 0.250 0.250 | -2020.924 5 
242  1 0.161 0.122 0.000 0.000 0.000  108.000000 108.000000 128.000000 108.000000 = 452  |  0.250 0.250 0.250 0.250 | -2021.653 5 
243  0 0.170 0.122 0.000 0.000 0.000  108.000000 108.000000 128.000000 108.000000 = 452  |  0.250 0.250 0.250 0.250 | -2023.092 5 
244  0 0.167 0.122 0.000 0.000 0.000  108.000000 108.000000 128.000000 108.000000 = 452  |  0.250 0.250 0.250 0.250 | -2022.567 5 
245  1 0.167 0.121 0.000 0.000 0.000  108.000000 108.000000 128.000000 108.000000 = 452  |  0.250 0.250 0.250 0.250 | -2024.105 5 
246  1 0.167 0.124 0.000 0.000 0.000  108.000000 108.000000 128.000000 108.000000 = 452  |  0.250 0.250 0.250 0.250 | -2022.936 5 
247  1 0.167 0.127 0.000 0.000 0.000  108.000000 108.000000 128.000000 108.000000 = 452  |  0.250 0.250 0.250 0.250 | -2022.792 5 
248  1 0.167 0.130 0.000 0.000 0.000  108.000000 108.000000 128.000000 108.000000 = 452  |  0.250 0.250 0.250 0.250 | -2023.167 5 
249  1 0.167 0.132 0.000 0.000 0.000  108.000000 108.000000 128.000000 108.000000 = 452  |  0.250 0.250 0.250 0.250 | -2025.726 5 
250  0 0.165 0.132 0.000 0.000 0.000  108.000000 108.000000 128.000000 108.000000 = 452  |  0.250 0.250 0.250 0.250 | -2024.870 5 
251  1 0.165 0.135 0.000 0.000 0.000  108.000000 108.000000 128.000000 108.000000 = 452  |  0.250 0.250 0.250 0.250 | -2024.376 5 
252  0 0.173 0.135 0.000 0.000 0.000  108.000000 108.000000 128.000000 108.000000 = 452  |  0.250 0.250 0.250 0.250 | -2025.501 5 
253  0 0.171 0.135 0.000 0.000 0.000  108.000000 108.000000 128.000000 108.000000 = 452  |  0.250 0.250 0.250 0.250 | -2025.429 5 
254  0 0.172 0.135 0.000 0.000 0.000  108.000000 108.000000 128.000000 108.000000 = 452  |  0.250 0.250 0.250 0.250 | -2026.768 5 
255  1 0.172 0.138 0.000 0.000 0.000  108.000000 108.000000 128.000000 108.000000 = 452  |  0.250 0.250 0.250 0.250 | -2026.430 5 
256  0 0.170 0.138 0.000 0.000 0.000  108.000000 108.000000 128.000000 108.000000 = 452  |  0.250 0.250 0.250 0.250 | -2027.275 5 
257  1 0.170 0.137 0.000 0.000 0.000  108.000000 108.000000 128.000000 108.000000 = 452  |  0.250 0.250 0.250 0.250 | -2026.881 5 
258  1 0.170 0.136 0.000 0.000 0.000  108.000000 108.000000 128.000000 108.000000 = 452  |  0.250 0.250 0.250 0.250 | -2026.801 5 
259  1 0.170 0.138 0.000 0.000 0.000  108.000000 108.000000 128.000000 108.000000 = 452  |  0.250 0.250 0.250 0.250 | -2026.322 5 
260  1 0.170 0.141 0.000 0.000 0.000  108.000000 108.000000 128.000000 108.000000 = 452  |  0.250 0.250 0.250 0.250 | -2028.030 5 
261  1 0.170 0.144 0.000 0.000 0.000  108.000000 108.000000 128.000000 108.000000 = 452  |  0.250 0.250 0.250 0.250 | -2028.242 5 
262  1 0.170 0.143 0.000 0.000 0.000  108.000000 108.000000 128.000000 108.000000 = 452  |  0.250 0.250 0.250 0.250 | -2027.156 5 
263  1 0.170 0.142 0.000 0.000 0.000  108.000000 108.000000 128.000000 108.000000 = 452  |  0.250 0.250 0.250 0.250 | -2027.640 5 
264  1 0.170 0.141 0.000 0.000 0.000  108.000000 108.000000 128.000000 108.000000 = 452  |  0.250 0.250 0.250 0.250 | -2026.793 5 
265  1 0.170 0.143 0.000 0.000 0.000  108.000000 108.000000 128.000000 108.000000 = 452  |  0.250 0.250 0.250 0.250 | -2027.979 5 
266  1 0.170 0.142 0.000 0.000 0.000  108.000000 108.000000 128.000000 108.000000 = 452  |  0.250 0.250 0.250 0.250 | -2027.811 5 
267  1 0.170 0.145 0.000 0.000 0.000  108.000000 108.000000 128.000000 108.000000 = 452  |  0.250 0.250 0.250 0.250 | -2027.456 5 
268  0 0.167 0.145 0.000 0.000 0.000  108.000000 108.000000 128.000000 108.000000 = 452  |  0.250 0.250 0.250 0.250 | -2027.663 5 
269  0 0.172 0.145 0.000 0.000 0.000  108.000000 108.000000 128.000000 108.000000 = 452  |  0.250 0.250 0.250 0.250 | -2027.851 5 
270  1 0.172 0.144 0.000 0.000 0.000  108.000000 108.000000 128.000000 108.000000 = 452  |  0.250 0.250 0.250 0.250 | -2028.027 5 
271  1 0.172 0.143 0.000 0.000 0.000  108.000000 108.000000 128.000000 108.000000 = 452  |  0.250 0.250 0.250 0.250 | -2026.270 5 
272  1 0.172 0.142 0.000 0.000 0.000  108.000000 108.000000 128.000000 108.000000 = 452  |  0.250 0.250 0.250 0.250 | -2027.448 5 
273  0 0.173 0.142 0.000 0.000 0.000  108.000000 108.000000 128.000000 108.000000 = 452  |  0.250 0.250 0.250 0.250 | -2027.070 5 
274  0 0.180 0.142 0.000 0.000 0.000  108.000000 108.000000 128.000000 108.000000 = 452  |  0.250 0.250 0.250 0.250 | -2027.483 5 
275  0 0.178 0.142 0.000 0.000 0.000  108.000000 108.000000 128.000000 108.000000 = 452  |  0.250 0.250 0.250 0.250 | -2027.823 5 
276  0 0.182 0.142 0.000 0.000 0.000  108.000000 108.000000 128.000000 108.000000 = 452  |  0.250 0.250 0.250 0.250 | -2027.654 5 
277  1 0.182 0.141 0.000 0.000 0.000  108.000000 108.000000 128.000000 108.000000 = 452  |  0.250 0.250 0.250 0.250 | -2026.626 5 
278  1 0.182 0.143 0.000 0.000 0.000  108.000000 108.000000 128.000000 108.000000 = 452  |  0.250 0.250 0.250 0.250 | -2027.122 5 
279  0 0.180 0.143 0.000 0.000 0.000  108.000000 108.000000 128.000000 108.000000 = 452  |  0.250 0.250 0.250 0.250 | -2028.319 5 
280  0 0.178 0.143 0.000 0.000 0.000  108.000000 108.000000 128.000000 108.000000 = 452  |  0.250 0.250 0.250 0.250 | -2028.354 5 
281  0 0.182 0.143 0.000 0.000 0.000  108.000000 108.000000 128.000000 108.000000 = 452  |  0.250 0.250 0.250 0.250 | -2028.265 5 
282  1 0.182 0.142 0.000 0.000 0.000  108.000000 108.000000 128.000000 108.000000 = 452  |  0.250 0.250 0.250 0.250 | -2026.839 5 
283  0 0.179 0.142 0.000 0.000 0.000  108.000000 108.000000 128.000000 108.000000 = 452  |  0.250 0.250 0.250 0.250 | -2027.691 5 
284  1 0.179 0.141 0.000 0.000 0.000  108.000000 108.000000 128.000000 108.000000 = 452  |  0.250 0.250 0.250 0.250 | -2028.355 5 
285  1 0.179 0.140 0.000 0.000 0.000  108.000000 108.000000 128.000000 108.000000 = 452  |  0.250 0.250 0.250 0.250 | -2027.042 5 
286  1 0.179 0.143 0.000 0.000 0.000  108.000000 108.000000 128.000000 108.000000 = 452  |  0.250 0.250 0.250 0.250 | -2026.699 5 
287  0 0.183 0.143 0.000 0.000 0.000  108.000000 108.000000 128.000000 108.000000 = 452  |  0.250 0.250 0.250 0.250 | -2028.442 5 
288  1 0.183 0.142 0.000 0.000 0.000  108.000000 108.000000 128.000000 108.000000 = 452  |  0.250 0.250 0.250 0.250 | -2029.789 5 
289  1 0.183 0.144 0.000 0.000 0.000  108.000000 108.000000 128.000000 108.000000 = 452  |  0.250 0.250 0.250 0.250 | -2029.134 5 
290  1 0.183 0.143 0.000 0.000 0.000  108.000000 108.000000 128.000000 108.000000 = 452  |  0.250 0.250 0.250 0.250 | -2028.284 5 
291  0 0.181 0.143 0.000 0.000 0.000  108.000000 108.000000 128.000000 108.000000 = 452  |  0.250 0.250 0.250 0.250 | -2030.900 5 
292  0 0.179 0.143 0.000 0.000 0.000  108.000000 108.000000 128.000000 108.000000 = 452  |  0.250 0.250 0.250 0.250 | -2027.921 5 
293  0 0.186 0.143 0.000 0.000 0.000  108.000000 108.000000 128.000000 108.000000 = 452  |  0.250 0.250 0.250 0.250 | -2028.748 5 
294  1 0.186 0.142 0.000 0.000 0.000  108.000000 108.000000 128.000000 108.000000 = 452  |  0.250 0.250 0.250 0.250 | -2028.585 5 
295  0 0.183 0.142 0.000 0.000 0.000  108.000000 108.000000 128.000000 108.000000 = 452  |  0.250 0.250 0.250 0.250 | -2029.476 5 
296  0 0.181 0.142 0.000 0.000 0.000  108.000000 108.000000 128.000000 108.000000 = 452  |  0.250 0.250 0.250 0.250 | -2029.472 5 
297  1 0.181 0.141 0.000 0.000 0.000  108.000000 108.000000 128.000000 108.000000 = 452  |  0.250 0.250 0.250 0.250 | -2029.030 5 
298  0 0.179 0.141 0.000 0.000 0.000  108.000000 108.000000 128.000000 108.000000 = 452  |  0.250 0.250 0.250 0.250 | -2028.446 5 
299  1 0.179 0.144 0.000 0.000 0.000  108.000000 108.000000 128.000000 108.000000 = 452  |  0.250 0.250 0.250 0.250 | -2029.730 5 
300  1 0.179 0.146 0.000 0.000 0.000  108.000000 108.000000 128.000000 108.000000 = 452  |  0.250 0.250 0.250 0.250 | -2030.290 5 
301  1 0.179 0.148 0.000 0.000 0.000  108.000000 108.000000 128.000000 108.000000 = 452  |  0.250 0.250 0.250 0.250 | -2030.641 5 
302  0 0.177 0.148 0.000 0.000 0.000  108.000000 108.000000 128.000000 108.000000 = 452  |  0.250 0.250 0.250 0.250 | -2031.488 5 
303  0 0.175 0.148 0.000 0.000 0.000  108.000000 108.000000 128.000000 108.000000 = 452  |  0.250 0.250 0.250 0.250 | -2031.632 5 
304  0 0.173 0.148 0.000 0.000 0.000  108.000000 108.000000 128.000000 108.000000 = 452  |  0.250 0.250 0.250 0.250 | -2031.361 5 
305  1 0.173 0.147 0.000 0.000 0.000  108.000000 108.000000 128.000000 108.000000 = 452  |  0.250 0.250 0.250 0.250 | -2030.980 5 
306  0 0.172 0.147 0.000 0.000 0.000  108.000000 108.000000 128.000000 108.000000 = 452  |  0.250 0.250 0.250 0.250 | -2031.545 5 
307  0 0.170 0.147 0.000 0.000 0.000  108.000000 108.000000 128.000000 108.000000 = 452  |  0.250 0.250 0.250 0.250 | -2031.281 5 
308  1 0.170 0.146 0.000 0.000 0.000  108.000000 108.000000 128.000000 108.000000 = 452  |  0.250 0.250 0.250 0.250 | -2031.040 5 
309  1 0.170 0.145 0.000 0.000 0.000  108.000000 108.000000 128.000000 108.000000 = 452  |  0.250 0.250 0.250 0.250 | -2031.371 5 
310  1 0.170 0.144 0.000 0.000 0.000  108.000000 108.000000 128.000000 108.000000 = 452  |  0.250 0.250 0.250 0.250 | -2031.430 5 
311  1 0.170 0.146 0.000 0.000 0.000  108.000000 108.000000 128.000000 108.000000 = 452  |  0.250 0.250 0.250 0.250 | -2032.396 5 
312  1 0.170 0.149 0.000 0.000 0.000  108.000000 108.000000 128.000000 108.000000 = 452  |  0.250 0.250 0.250 0.250 | -2031.667 5 
313  1 0.170 0.148 0.000 0.000 0.000  108.000000 108.000000 128.000000 108.000000 = 452  |  0.250 0.250 0.250 0.250 | -2032.183 5 
314  0 0.168 0.148 0.000 0.000 0.000  108.000000 108.000000 128.000000 108.000000 = 452  |  0.250 0.250 0.250 0.250 | -2033.992 5 
315  1 0.168 0.147 0.000 0.000 0.000  108.000000 108.000000 128.000000 108.000000 = 452  |  0.250 0.250 0.250 0.250 | -2033.496 5 
316  1 0.168 0.149 0.000 0.000 0.000  108.000000 108.000000 128.000000 108.000000 = 452  |  0.250 0.250 0.250 0.250 | -2034.452 5 
317  1 0.168 0.151 0.000 0.000 0.000  108.000000 108.000000 128.000000 108.000000 = 452  |  0.250 0.250 0.250 0.250 | -2033.714 5 
318  0 0.166 0.151 0.000 0.000 0.000  108.000000 108.000000 128.000000 108.000000 = 452  |  0.250 0.250 0.250 0.250 | -2032.365 5 
319  1 0.166 0.150 0.000 0.000 0.000  108.000000 108.000000 128.000000 108.000000 = 452  |  0.250 0.250 0.250 0.250 | -2032.564 5 
320  0 0.165 0.150 0.000 0.000 0.000  108.000000 108.000000 128.000000 108.000000 = 452  |  0.250 0.250 0.250 0.250 | -2032.822 5 
321  0 0.168 0.150 0.000 0.000 0.000  108.000000 108.000000 128.000000 108.000000 = 452  |  0.250 0.250 0.250 0.250 | -2034.146 5 
322  1 0.168 0.152 0.000 0.000 0.000  108.000000 108.000000 128.000000 108.000000 = 452  |  0.250 0.250 0.250 0.250 | -2032.894 5 
323  1 0.168 0.154 0.000 0.000 0.000  108.000000 108.000000 128.000000 108.000000 = 452  |  0.250 0.250 0.250 0.250 | -2034.444 5 
324  1 0.168 0.156 0.000 0.000 0.000  108.000000 108.000000 128.000000 108.000000 = 452  |  0.250 0.250 0.250 0.250 | -2035.635 5 
325  1 0.168 0.155 0.000 0.000 0.000  108.000000 108.000000 128.000000 108.000000 = 452  |  0.250 0.250 0.250 0.250 | -2034.595 5 
326  1 0.168 0.154 0.000 0.000 0.000  108.000000 108.000000 128.000000 108.000000 = 452  |  0.250 0.250 0.250 0.250 | -2036.417 5 
327  0 0.169 0.154 0.000 0.000 0.000  108.000000 108.000000 128.000000 108.000000 = 452  |  0.250 0.250 0.250 0.250 | -2034.515 5 
328  0 0.177 0.154 0.000 0.000 0.000  108.000000 108.000000 128.000000 108.000000 = 452  |  0.250 0.250 0.250 0.250 | -2034.832 5 
329  1 0.177 0.153 0.000 0.000 0.000  108.000000 108.000000 128.000000 108.000000 = 452  |  0.250 0.250 0.250 0.250 | -2035.520 5 
330  1 0.177 0.153 0.000 0.000 0.000  108.000000 108.000000 128.000000 108.000000 = 452  |  0.250 0.250 0.250 0.250 | -2035.973 5 
331  1 0.177 0.152 0.000 0.000 0.000  108.000000 108.000000 128.000000 108.000000 = 452  |  0.250 0.250 0.250 0.250 | -2036.267 5 
332  1 0.177 0.154 0.000 0.000 0.000  108.000000 108.000000 128.000000 108.000000 = 452  |  0.250 0.250 0.250 0.250 | -2035.849 5 
333  1 0.177 0.153 0.000 0.000 0.000  108.000000 108.000000 128.000000 108.000000 = 452  |  0.250 0.250 0.250 0.250 | -2036.602 5 
334  1 0.177 0.152 0.000 0.000 0.000  108.000000 108.000000 128.000000 108.000000 = 452  |  0.250 0.250 0.250 0.250 | -2036.702 5 
335  1 0.177 0.154 0.000 0.000 0.000  108.000000 108.000000 128.000000 108.000000 = 452  |  0.250 0.250 0.250 0.250 | -2036.178 5 
336  0 0.175 0.154 0.000 0.000 0.000  108.000000 108.000000 128.000000 108.000000 = 452  |  0.250 0.250 0.250 0.250 | -2036.820 5 
337  0 0.178 0.154 0.000 0.000 0.000  108.000000 108.000000 128.000000 108.000000 = 452  |  0.250 0.250 0.250 0.250 | -2037.787 5 
338  1 0.178 0.156 0.000 0.000 0.000  108.000000 108.000000 128.000000 108.000000 = 452  |  0.250 0.250 0.250 0.250 | -2037.207 5 
339  1 0.178 0.155 0.000 0.000 0.000  108.000000 108.000000 128.000000 108.000000 = 452  |  0.250 0.250 0.250 0.250 | -2035.701 5 
340  1 0.178 0.154 0.000 0.000 0.000  108.000000 108.000000 128.000000 108.000000 = 452  |  0.250 0.250 0.250 0.250 | -2036.689 5 
341  1 0.178 0.153 0.000 0.000 0.000  108.000000 108.000000 128.000000 108.000000 = 452  |  0.250 0.250 0.250 0.250 | -2036.110 5 
342  0 0.177 0.153 0.000 0.000 0.000  108.000000 108.000000 128.000000 108.000000 = 452  |  0.250 0.250 0.250 0.250 | -2036.958 5 
343  1 0.177 0.155 0.000 0.000 0.000  108.000000 108.000000 128.000000 108.000000 = 452  |  0.250 0.250 0.250 0.250 | -2036.526 5 
344  0 0.175 0.155 0.000 0.000 0.000  108.000000 108.000000 128.000000 108.000000 = 452  |  0.250 0.250 0.250 0.250 | -2037.256 5 
345  0 0.183 0.155 0.000 0.000 0.000  108.000000 108.000000 128.000000 108.000000 = 452  |  0.250 0.250 0.250 0.250 | -2036.752 5 
346  1 0.183 0.157 0.000 0.000 0.000  108.000000 108.000000 128.000000 108.000000 = 452  |  0.250 0.250 0.250 0.250 | -2038.419 5 
347  0 0.184 0.157 0.000 0.000 0.000  108.000000 108.000000 128.000000 108.000000 = 452  |  0.250 0.250 0.250 0.250 | -2037.736 5 
348  1 0.184 0.159 0.000 0.000 0.000  108.000000 108.000000 128.000000 108.000000 = 452  |  0.250 0.250 0.250 0.250 | -2036.715 5 
349  1 0.184 0.160 0.000 0.000 0.000  108.000000 108.000000 128.000000 108.000000 = 452  |  0.250 0.250 0.250 0.250 | -2037.950 5 
350  0 0.182 0.160 0.000 0.000 0.000  108.000000 108.000000 128.000000 108.000000 = 452  |  0.250 0.250 0.250 0.250 | -2038.783 5 
351  1 0.182 0.160 0.000 0.000 0.000  108.000000 108.000000 128.000000 108.000000 = 452  |  0.250 0.250 0.250 0.250 | -2039.473 5 
352  1 0.182 0.159 0.000 0.000 0.000  108.000000 108.000000 128.000000 108.000000 = 452  |  0.250 0.250 0.250 0.250 | -2038.117 5 
353  1 0.182 0.161 0.000 0.000 0.000  108.000000 108.000000 128.000000 108.000000 = 452  |  0.250 0.250 0.250 0.250 | -2037.842 5 
354  1 0.182 0.162 0.000 0.000 0.000  108.000000 108.000000 128.000000 108.000000 = 452  |  0.250 0.250 0.250 0.250 | -2038.331 5 
355  0 0.185 0.162 0.000 0.000 0.000  108.000000 108.000000 128.000000 108.000000 = 452  |  0.250 0.250 0.250 0.250 | -2039.579 5 
356  0 0.185 0.162 0.000 0.000 0.000  108.000000 108.000000 128.000000 108.000000 = 452  |  0.250 0.250 0.250 0.250 | -2038.087 5 
357  1 0.185 0.161 0.000 0.000 0.000  108.000000 108.000000 128.000000 108.000000 = 452  |  0.250 0.250 0.250 0.250 | -2039.283 5 
358  1 0.185 0.161 0.000 0.000 0.000  108.000000 108.000000 128.000000 108.000000 = 452  |  0.250 0.250 0.250 0.250 | -2039.292 5 
359  0 0.184 0.161 0.000 0.000 0.000  108.000000 108.000000 128.000000 108.000000 = 452  |  0.250 0.250 0.250 0.250 | -2038.175 5 
360  1 0.184 0.160 0.000 0.000 0.000  108.000000 108.000000 128.000000 108.000000 = 452  |  0.250 0.250 0.250 0.250 | -2037.515 5 
361  1 0.184 0.161 0.000 0.000 0.000  108.000000 108.000000 128.000000 108.000000 = 452  |  0.250 0.250 0.250 0.250 | -2039.683 5 
362  1 0.184 0.161 0.000 0.000 0.000  108.000000 108.000000 128.000000 108.000000 = 452  |  0.250 0.250 0.250 0.250 | -2040.017 5 
363  1 0.184 0.162 0.000 0.000 0.000  108.000000 108.000000 128.000000 108.000000 = 452  |  0.250 0.250 0.250 0.250 | -2039.423 5 
364  1 0.184 0.162 0.000 0.000 0.000  108.000000 108.000000 128.000000 108.000000 = 452  |  0.250 0.250 0.250 0.250 | -2039.559 5 
365  0 0.187 0.162 0.000 0.000 0.000  108.000000 108.000000 128.000000 108.000000 = 452  |  0.250 0.250 0.250 0.250 | -2039.944 5 
366  1 0.187 0.161 0.000 0.000 0.000  108.000000 108.000000 128.000000 108.000000 = 452  |  0.250 0.250 0.250 0.250 | -2040.643 5 
367  0 0.189 0.161 0.000 0.000 0.000  108.000000 108.000000 128.000000 108.000000 = 452  |  0.250 0.250 0.250 0.250 | -2041.676 5 
368  0 0.192 0.161 0.000 0.000 0.000  108.000000 108.000000 128.000000 108.000000 = 452  |  0.250 0.250 0.250 0.250 | -2040.578 5 
369  1 0.192 0.162 0.000 0.000 0.000  108.000000 108.000000 128.000000 108.000000 = 452  |  0.250 0.250 0.250 0.250 | -2040.156 5 
370  0 0.195 0.162 0.000 0.000 0.000  108.000000 108.000000 128.000000 108.000000 = 452  |  0.250 0.250 0.250 0.250 | -2039.532 5 
371  0 0.200 0.162 0.000 0.000 0.000  108.000000 108.000000 128.000000 108.000000 = 452  |  0.250 0.250 0.250 0.250 | -2039.819 5 
372  0 0.198 0.162 0.000 0.000 0.000  108.000000 108.000000 128.000000 108.000000 = 452  |  0.250 0.250 0.250 0.250 | -2041.586 5 
373  1 0.198 0.164 0.000 0.000 0.000  108.000000 108.000000 128.000000 108.000000 = 452  |  0.250 0.250 0.250 0.250 | -2042.364 5 
374  0 0.198 0.164 0.000 0.000 0.000  108.000000 108.000000 128.000000 108.000000 = 452  |  0.250 0.250 0.250 0.250 | -2040.784 5 
375  1 0.198 0.166 0.000 0.000 0.000  108.000000 108.000000 128.000000 108.000000 = 452  |  0.250 0.250 0.250 0.250 | -2040.426 5 
376  1 0.198 0.165 0.000 0.000 0.000  108.000000 108.000000 128.000000 108.000000 = 452  |  0.250 0.250 0.250 0.250 | -2041.380 5 
377  0 0.197 0.165 0.000 0.000 0.000  108.000000 108.000000 128.000000 108.000000 = 452  |  0.250 0.250 0.250 0.250 | -2041.468 5 
378  1 0.197 0.166 0.000 0.000 0.000  108.000000 108.000000 128.000000 108.000000 = 452  |  0.250 0.250 0.250 0.250 | -2041.980 5 
379  1 0.197 0.166 0.000 0.000 0.000  108.000000 108.000000 128.000000 108.000000 = 452  |  0.250 0.250 0.250 0.250 | -2041.736 5 
380  1 0.197 0.165 0.000 0.000 0.000  108.000000 108.000000 128.000000 108.000000 = 452  |  0.250 0.250 0.250 0.250 | -2043.228 5 
381  0 0.197 0.165 0.000 0.000 0.000  108.000000 108.000000 128.000000 108.000000 = 452  |  0.250 0.250 0.250 0.250 | -2044.430 5 
382  1 0.197 0.164 0.000 0.000 0.000  108.000000 108.000000 128.000000 108.000000 = 452  |  0.250 0.250 0.250 0.250 | -2043.497 5 
383  1 0.197 0.166 0.000 0.000 0.000  108.000000 108.000000 128.000000 108.000000 = 452  |  0.250 0.250 0.250 0.250 | -2044.462 5 
384  1 0.197 0.165 0.000 0.000 0.000  108.000000 108.000000 128.000000 108.000000 = 452  |  0.250 0.250 0.250 0.250 | -2044.408 5 
385  1 0.197 0.166 0.000 0.000 0.000  108.000000 108.000000 128.000000 108.000000 = 452  |  0.250 0.250 0.250 0.250 | -2045.408 5 
386  1 0.197 0.166 0.000 0.000 0.000  108.000000 108.000000 128.000000 108.000000 = 452  |  0.250 0.250 0.250 0.250 | -2043.986 5 
387  0 0.195 0.166 0.000 0.000 0.000  108.000000 108.000000 128.000000 108.000000 = 452  |  0.250 0.250 0.250 0.250 | -2044.209 5 
388  1 0.195 0.165 0.000 0.000 0.000  108.000000 108.000000 128.000000 108.000000 = 452  |  0.250 0.250 0.250 0.250 | -2044.304 5 
389  1 0.195 0.166 0.000 0.000 0.000  108.000000 108.000000 128.000000 108.000000 = 452  |  0.250 0.250 0.250 0.250 | -2043.578 5 
390  1 0.195 0.168 0.000 0.000 0.000  108.000000 108.000000 128.000000 108.000000 = 452  |  0.250 0.250 0.250 0.250 | -2044.594 5 
391  1 0.195 0.167 0.000 0.000 0.000  108.000000 108.000000 128.000000 108.000000 = 452  |  0.250 0.250 0.250 0.250 | -2045.218 5 
392  1 0.195 0.169 0.000 0.000 0.000  108.000000 108.000000 128.000000 108.000000 = 452  |  0.250 0.250 0.250 0.250 | -2045.014 5 
393  0 0.194 0.169 0.000 0.000 0.000  108.000000 108.000000 128.000000 108.000000 = 452  |  0.250 0.250 0.250 0.250 | -2046.023 5 
394  1 0.194 0.168 0.000 0.000 0.000  108.000000 108.000000 128.000000 108.000000 = 452  |  0.250 0.250 0.250 0.250 | -2045.959 5 
395  1 0.194 0.169 0.000 0.000 0.000  108.000000 108.000000 128.000000 108.000000 = 452  |  0.250 0.250 0.250 0.250 | -2045.879 5 
396  1 0.194 0.169 0.000 0.000 0.000  108.000000 108.000000 128.000000 108.000000 = 452  |  0.250 0.250 0.250 0.250 | -2045.025 5 
397  1 0.194 0.168 0.000 0.000 0.000  108.000000 108.000000 128.000000 108.000000 = 452  |  0.250 0.250 0.250 0.250 | -2045.063 5 
398  0 0.194 0.168 0.000 0.000 0.000  108.000000 108.000000 128.000000 108.000000 = 452  |  0.250 0.250 0.250 0.250 | -2044.900 5 
399  1 0.194 0.169 0.000 0.000 0.000  108.000000 108.000000 128.000000 108.000000 = 452  |  0.250 0.250 0.250 0.250 | -2045.059 5 
400  0 0.193 0.169 0.000 0.000 0.000  108.000000 108.000000 128.000000 108.000000 = 452  |  0.250 0.250 0.250 0.250 | -2044.783 5 
401  1 0.193 0.169 0.000 0.000 0.000  108.000000 108.000000 128.000000 108.000000 = 452  |  0.250 0.250 0.250 0.250 | -2045.956 5 
402  1 0.193 0.170 0.000 0.000 0.000  108.000000 108.000000 128.000000 108.000000 = 452  |  0.250 0.250 0.250 0.250 | -2044.898 5 
403  1 0.193 0.169 0.000 0.000 0.000  108.000000 108.000000 128.000000 108.000000 = 452  |  0.250 0.250 0.250 0.250 | -2045.229 5 
404  1 0.193 0.171 0.000 0.000 0.000  108.000000 108.000000 128.000000 108.000000 = 452  |  0.250 0.250 0.250 0.250 | -2044.439 5 
405  1 0.193 0.170 0.000 0.000 0.000  108.000000 108.000000 128.000000 108.000000 = 452  |  0.250 0.250 0.250 0.250 | -2045.168 5 
406  0 0.191 0.170 0.000 0.000 0.000  108.000000 108.000000 128.000000 108.000000 = 452  |  0.250 0.250 0.250 0.250 | -2045.473 5 
407  1 0.191 0.171 0.000 0.000 0.000  108.000000 108.000000 128.000000 108.000000 = 452  |  0.250 0.250 0.250 0.250 | -2046.745 5 
408  0 0.196 0.171 0.000 0.000 0.000  108.000000 108.000000 128.000000 108.000000 = 452  |  0.250 0.250 0.250 0.250 | -2045.996 5 
409  1 0.196 0.171 0.000 0.000 0.000  108.000000 108.000000 128.000000 108.000000 = 452  |  0.250 0.250 0.250 0.250 | -2045.317 5 
410  0 0.198 0.171 0.000 0.000 0.000  108.000000 108.000000 128.000000 108.000000 = 452  |  0.250 0.250 0.250 0.250 | -2046.147 5 
411  1 0.198 0.170 0.000 0.000 0.000  108.000000 108.000000 128.000000 108.000000 = 452  |  0.250 0.250 0.250 0.250 | -2045.451 5 
412  1 0.198 0.171 0.000 0.000 0.000  108.000000 108.000000 128.000000 108.000000 = 452  |  0.250 0.250 0.250 0.250 | -2046.933 5 
413  1 0.198 0.173 0.000 0.000 0.000  108.000000 108.000000 128.000000 108.000000 = 452  |  0.250 0.250 0.250 0.250 | -2045.794 5 
414  1 0.198 0.174 0.000 0.000 0.000  108.000000 108.000000 128.000000 108.000000 = 452  |  0.250 0.250 0.250 0.250 | -2044.696 5 
415  1 0.198 0.173 0.000 0.000 0.000  108.000000 108.000000 128.000000 108.000000 = 452  |  0.250 0.250 0.250 0.250 | -2044.956 5 
416  1 0.198 0.173 0.000 0.000 0.000  108.000000 108.000000 128.000000 108.000000 = 452  |  0.250 0.250 0.250 0.250 | -2045.577 5 
417  1 0.198 0.174 0.000 0.000 0.000  108.000000 108.000000 128.000000 108.000000 = 452  |  0.250 0.250 0.250 0.250 | -2046.336 5 
418  1 0.198 0.173 0.000 0.000 0.000  108.000000 108.000000 128.000000 108.000000 = 452  |  0.250 0.250 0.250 0.250 | -2045.746 5 
419  1 0.198 0.173 0.000 0.000 0.000  108.000000 108.000000 128.000000 108.000000 = 452  |  0.250 0.250 0.250 0.250 | -2045.640 5 
420  1 0.198 0.172 0.000 0.000 0.000  108.000000 108.000000 128.000000 108.000000 = 452  |  0.250 0.250 0.250 0.250 | -2045.755 5 
421  0 0.196 0.172 0.000 0.000 0.000  108.000000 108.000000 128.000000 108.000000 = 452  |  0.250 0.250 0.250 0.250 | -2044.673 5 
422  0 0.201 0.172 0.000 0.000 0.000  108.000000 108.000000 128.000000 108.000000 = 452  |  0.250 0.250 0.250 0.250 | -2046.066 5 
423  0 0.203 0.172 0.000 0.000 0.000  108.000000 108.000000 128.000000 108.000000 = 452  |  0.250 0.250 0.250 0.250 | -2047.226 5 
424  1 0.203 0.173 0.000 0.000 0.000  108.000000 108.000000 128.000000 108.000000 = 452  |  0.250 0.250 0.250 0.250 | -2047.645 5 
425  1 0.203 0.173 0.000 0.000 0.000  108.000000 108.000000 128.000000 108.000000 = 452  |  0.250 0.250 0.250 0.250 | -2047.064 5 
426  0 0.202 0.173 0.000 0.000 0.000  108.000000 108.000000 128.000000 108.000000 = 452  |  0.250 0.250 0.250 0.250 | -2046.912 5 
427  0 0.204 0.173 0.000 0.000 0.000  108.000000 108.000000 128.000000 108.000000 = 452  |  0.250 0.250 0.250 0.250 | -2046.146 5 
428  0 0.202 0.173 0.000 0.000 0.000  108.000000 108.000000 128.000000 108.000000 = 452  |  0.250 0.250 0.250 0.250 | -2047.127 5 
429  1 0.202 0.174 0.000 0.000 0.000  108.000000 108.000000 128.000000 108.000000 = 452  |  0.250 0.250 0.250 0.250 | -2046.344 5 
430  1 0.202 0.175 0.000 0.000 0.000  108.000000 108.000000 128.000000 108.000000 = 452  |  0.250 0.250 0.250 0.250 | -2047.208 5 
431  1 0.202 0.175 0.000 0.000 0.000  108.000000 108.000000 128.000000 108.000000 = 452  |  0.250 0.250 0.250 0.250 | -2048.575 5 
432  1 0.202 0.176 0.000 0.000 0.000  108.000000 108.000000 128.000000 108.000000 = 452  |  0.250 0.250 0.250 0.250 | -2048.018 5 
433  1 0.202 0.175 0.000 0.000 0.000  108.000000 108.000000 128.000000 108.000000 = 452  |  0.250 0.250 0.250 0.250 | -2047.179 5 
434  1 0.202 0.174 0.000 0.000 0.000  108.000000 108.000000 128.000000 108.000000 = 452  |  0.250 0.250 0.250 0.250 | -2047.854 5 
435  1 0.202 0.174 0.000 0.000 0.000  108.000000 108.000000 128.000000 108.000000 = 452  |  0.250 0.250 0.250 0.250 | -2047.676 5 
436  0 0.203 0.174 0.000 0.000 0.000  108.000000 108.000000 128.000000 108.000000 = 452  |  0.250 0.250 0.250 0.250 | -2048.479 5 
437  0 0.201 0.174 0.000 0.000 0.000  108.000000 108.000000 128.000000 108.000000 = 452  |  0.250 0.250 0.250 0.250 | -2048.848 5 
438  0 0.200 0.174 0.000 0.000 0.000  108.000000 108.000000 128.000000 108.000000 = 452  |  0.250 0.250 0.250 0.250 | -2047.843 5 
439  0 0.198 0.174 0.000 0.000 0.000  108.000000 108.000000 128.000000 108.000000 = 452  |  0.250 0.250 0.250 0.250 | -2047.856 5 
440  1 0.198 0.175 0.000 0.000 0.000  108.000000 108.000000 128.000000 108.000000 = 452  |  0.250 0.250 0.250 0.250 | -2048.253 5 
441  1 0.198 0.176 0.000 0.000 0.000  108.000000 108.000000 128.000000 108.000000 = 452  |  0.250 0.250 0.250 0.250 | -2049.190 5 
442  1 0.198 0.178 0.000 0.000 0.000  108.000000 108.000000 128.000000 108.000000 = 452  |  0.250 0.250 0.250 0.250 | -2049.871 5 
443  0 0.197 0.178 0.000 0.000 0.000  108.000000 108.000000 128.000000 108.000000 = 452  |  0.250 0.250 0.250 0.250 | -2050.115 5 
444  1 0.197 0.179 0.000 0.000 0.000  108.000000 108.000000 128.000000 108.000000 = 452  |  0.250 0.250 0.250 0.250 | -2050.717 5 
445  1 0.197 0.178 0.000 0.000 0.000  108.000000 108.000000 128.000000 108.000000 = 452  |  0.250 0.250 0.250 0.250 | -2050.530 5 
446  1 0.197 0.177 0.000 0.000 0.000  108.000000 108.000000 128.000000 108.000000 = 452  |  0.250 0.250 0.250 0.250 | -2050.244 5 
447  0 0.195 0.177 0.000 0.000 0.000  108.000000 108.000000 128.000000 108.000000 = 452  |  0.250 0.250 0.250 0.250 | -2050.261 5 
448  1 0.195 0.177 0.000 0.000 0.000  108.000000 108.000000 128.000000 108.000000 = 452  |  0.250 0.250 0.250 0.250 | -2050.271 5 
449  1 0.195 0.176 0.000 0.000 0.000  108.000000 108.000000 128.000000 108.000000 = 452  |  0.250 0.250 0.250 0.250 | -2051.373 5 
450  0 0.201 0.176 0.000 0.000 0.000  108.000000 108.000000 128.000000 108.000000 = 452  |  0.250 0.250 0.250 0.250 | -2050.664 5 
451  0 0.205 0.176 0.000 0.000 0.000  108.000000 108.000000 128.000000 108.000000 = 452  |  0.250 0.250 0.250 0.250 | -2051.333 5 
452  0 0.205 0.176 0.000 0.000 0.000  108.000000 108.000000 128.000000 108.000000 = 452  |  0.250 0.250 0.250 0.250 | -2050.341 5 
453  1 0.205 0.177 0.000 0.000 0.000  108.000000 108.000000 128.000000 108.000000 = 452  |  0.250 0.250 0.250 0.250 | -2051.066 5 
454  1 0.205 0.177 0.000 0.000 0.000  108.000000 108.000000 128.000000 108.000000 = 452  |  0.250 0.250 0.250 0.250 | -2052.326 5 
455  0 0.206 0.177 0.000 0.000 0.000  108.000000 108.000000 128.000000 108.000000 = 452  |  0.250 0.250 0.250 0.250 | -2052.028 5 
456  0 0.208 0.177 0.000 0.000 0.000  108.000000 108.000000 128.000000 108.000000 = 452  |  0.250 0.250 0.250 0.250 | -2052.454 5 
457  1 0.208 0.178 0.000 0.000 0.000  108.000000 108.000000 128.000000 108.000000 = 452  |  0.250 0.250 0.250 0.250 | -2052.057 5 
458  0 0.208 0.178 0.000 0.000 0.000  108.000000 108.000000 128.000000 108.000000 = 452  |  0.250 0.250 0.250 0.250 | -2053.879 5 
459  1 0.208 0.179 0.000 0.000 0.000  108.000000 108.000000 128.000000 108.000000 = 452  |  0.250 0.250 0.250 0.250 | -2054.690 5 
460  0 0.207 0.179 0.000 0.000 0.000  108.000000 108.000000 128.000000 108.000000 = 452  |  0.250 0.250 0.250 0.250 | -2054.308 5 
461  0 0.205 0.179 0.000 0.000 0.000  108.000000 108.000000 128.000000 108.000000 = 452  |  0.250 0.250 0.250 0.250 | -2054.109 5 
462  1 0.205 0.178 0.000 0.000 0.000  108.000000 108.000000 128.000000 108.000000 = 452  |  0.250 0.250 0.250 0.250 | -2054.509 5 
463  0 0.209 0.178 0.000 0.000 0.000  108.000000 108.000000 128.000000 108.000000 = 452  |  0.250 0.250 0.250 0.250 | -2052.994 5 
464  1 0.209 0.178 0.000 0.000 0.000  108.000000 108.000000 128.000000 108.000000 = 452  |  0.250 0.250 0.250 0.250 | -2053.822 5 
465  1 0.209 0.179 0.000 0.000 0.000  108.000000 108.000000 128.000000 108.000000 = 452  |  0.250 0.250 0.250 0.250 | -2054.659 5 
466  0 0.207 0.179 0.000 0.000 0.000  108.000000 108.000000 128.000000 108.000000 = 452  |  0.250 0.250 0.250 0.250 | -2054.735 5 
467  0 0.206 0.179 0.000 0.000 0.000  108.000000 108.000000 128.000000 108.000000 = 452  |  0.250 0.250 0.250 0.250 | -2054.328 5 
468  1 0.206 0.178 0.000 0.000 0.000  108.000000 108.000000 128.000000 108.000000 = 452  |  0.250 0.250 0.250 0.250 | -2053.431 5 
469  0 0.205 0.178 0.000 0.000 0.000  108.000000 108.000000 128.000000 108.000000 = 452  |  0.250 0.250 0.250 0.250 | -2055.600 5 
470  0 0.205 0.178 0.000 0.000 0.000  108.000000 108.000000 128.000000 108.000000 = 452  |  0.250 0.250 0.250 0.250 | -2053.842 5 
471  0 0.209 0.178 0.000 0.000 0.000  108.000000 108.000000 128.000000 108.000000 = 452  |  0.250 0.250 0.250 0.250 | -2054.546 5 
472  0 0.209 0.178 0.000 0.000 0.000  108.000000 108.000000 128.000000 108.000000 = 452  |  0.250 0.250 0.250 0.250 | -2054.556 5 
473  1 0.209 0.179 0.000 0.000 0.000  108.000000 108.000000 128.000000 108.000000 = 452  |  0.250 0.250 0.250 0.250 | -2054.144 5 
474  1 0.209 0.179 0.000 0.000 0.000  108.000000 108.000000 128.000000 108.000000 = 452  |  0.250 0.250 0.250 0.250 | -2054.561 5 
475  0 0.214 0.179 0.000 0.000 0.000  108.000000 108.000000 128.000000 108.000000 = 452  |  0.250 0.250 0.250 0.250 | -2054.677 5 
476  0 0.213 0.179 0.000 0.000 0.000  108.000000 108.000000 128.000000 108.000000 = 452  |  0.250 0.250 0.250 0.250 | -2053.823 5 
477  1 0.213 0.178 0.000 0.000 0.000  108.000000 108.000000 128.000000 108.000000 = 452  |  0.250 0.250 0.250 0.250 | -2054.926 5 
478  1 0.213 0.179 0.000 0.000 0.000  108.000000 108.000000 128.000000 108.000000 = 452  |  0.250 0.250 0.250 0.250 | -2054.733 5 
479  1 0.213 0.179 0.000 0.000 0.000  108.000000 108.000000 128.000000 108.000000 = 452  |  0.250 0.250 0.250 0.250 | -2055.961 5 
480  1 0.213 0.178 0.000 0.000 0.000  108.000000 108.000000 128.000000 108.000000 = 452  |  0.250 0.250 0.250 0.250 | -2055.011 5 
481  1 0.213 0.179 0.000 0.000 0.000  108.000000 108.000000 128.000000 108.000000 = 452  |  0.250 0.250 0.250 0.250 | -2055.234 5 
482  0 0.218 0.179 0.000 0.000 0.000  108.000000 108.000000 128.000000 108.000000 = 452  |  0.250 0.250 0.250 0.250 | -2057.217 5 
483  0 0.216 0.179 0.000 0.000 0.000  108.000000 108.000000 128.000000 108.000000 = 452  |  0.250 0.250 0.250 0.250 | -2056.695 5 
484  1 0.216 0.179 0.000 0.000 0.000  108.000000 108.000000 128.000000 108.000000 = 452  |  0.250 0.250 0.250 0.250 | -2055.962 5 
485  1 0.216 0.180 0.000 0.000 0.000  108.000000 108.000000 128.000000 108.000000 = 452  |  0.250 0.250 0.250 0.250 | -2056.415 5 
486  1 0.216 0.181 0.000 0.000 0.000  108.000000 108.000000 128.000000 108.000000 = 452  |  0.250 0.250 0.250 0.250 | -2056.878 5 
487  1 0.216 0.182 0.000 0.000 0.000  108.000000 108.000000 128.000000 108.000000 = 452  |  0.250 0.250 0.250 0.250 | -2056.268 5 
488  1 0.216 0.181 0.000 0.000 0.000  108.000000 108.000000 128.000000 108.000000 = 452  |  0.250 0.250 0.250 0.250 | -2056.733 5 
489  0 0.215 0.181 0.000 0.000 0.000  108.000000 108.000000 128.000000 108.000000 = 452  |  0.250 0.250 0.250 0.250 | -2056.619 5 
490  1 0.215 0.181 0.000 0.000 0.000  108.000000 108.000000 128.000000 108.000000 = 452  |  0.250 0.250 0.250 0.250 | -2057.649 5 
491  0 0.214 0.181 0.000 0.000 0.000  108.000000 108.000000 128.000000 108.000000 = 452  |  0.250 0.250 0.250 0.250 | -2056.715 5 
492  1 0.214 0.182 0.000 0.000 0.000  108.000000 108.000000 128.000000 108.000000 = 452  |  0.250 0.250 0.250 0.250 | -2056.840 5 
493  1 0.214 0.183 0.000 0.000 0.000  108.000000 108.000000 128.000000 108.000000 = 452  |  0.250 0.250 0.250 0.250 | -2056.828 5 
494  1 0.214 0.184 0.000 0.000 0.000  108.000000 108.000000 128.000000 108.000000 = 452  |  0.250 0.250 0.250 0.250 | -2057.204 5 
495  0 0.212 0.184 0.000 0.000 0.000  108.000000 108.000000 128.000000 108.000000 = 452  |  0.250 0.250 0.250 0.250 | -2056.729 5 
496  1 0.212 0.183 0.000 0.000 0.000  108.000000 108.000000 128.000000 108.000000 = 452  |  0.250 0.250 0.250 0.250 | -2056.643 5 
497  0 0.211 0.183 0.000 0.000 0.000  108.000000 108.000000 128.000000 108.000000 = 452  |  0.250 0.250 0.250 0.250 | -2057.273 5 
498  0 0.214 0.183 0.000 0.000 0.000  108.000000 108.000000 128.000000 108.000000 = 452  |  0.250 0.250 0.250 0.250 | -2059.137 5 
499  1 0.214 0.183 0.000 0.000 0.000  108.000000 108.000000 128.000000 108.000000 = 452  |  0.250 0.250 0.250 0.250 | -2057.018 5 
500  0 0.217 0.183 0.000 0.000 0.000  108.000000 108.000000 128.000000 108.000000 = 452  |  0.250 0.250 0.250 0.250 | -2056.835 5 
501  0 0.222 0.183 0.000 0.000 0.000  108.000000 108.000000 128.000000 108.000000 = 452  |  0.250 0.250 0.250 0.250 | -2057.778 5 
502  1 0.222 0.182 0.000 0.000 0.000  108.000000 108.000000 128.000000 108.000000 = 452  |  0.250 0.250 0.250 0.250 | -2058.443 5 
503  1 0.222 0.182 0.000 0.000 0.000  108.000000 108.000000 128.000000 108.000000 = 452  |  0.250 0.250 0.250 0.250 | -2058.242 5 
504  1 0.222 0.181 0.000 0.000 0.000  108.000000 108.000000 128.000000 108.000000 = 452  |  0.250 0.250 0.250 0.250 | -2058.055 5 
505  1 0.222 0.182 0.000 0.000 0.000  108.000000 108.000000 128.000000 108.000000 = 452  |  0.250 0.250 0.250 0.250 | -2057.955 5 
506  1 0.222 0.181 0.000 0.000 0.000  108.000000 108.000000 128.000000 108.000000 = 452  |  0.250 0.250 0.250 0.250 | -2058.872 5 
507  1 0.222 0.181 0.000 0.000 0.000  108.000000 108.000000 128.000000 108.000000 = 452  |  0.250 0.250 0.250 0.250 | -2057.914 5 
508  1 0.222 0.180 0.000 0.000 0.000  108.000000 108.000000 128.000000 108.000000 = 452  |  0.250 0.250 0.250 0.250 | -2058.422 5 
509  1 0.222 0.180 0.000 0.000 0.000  108.000000 108.000000 128.000000 108.000000 = 452  |  0.250 0.250 0.250 0.250 | -2058.196 5 
510  1 0.222 0.181 0.000 0.000 0.000  108.000000 108.000000 128.000000 108.000000 = 452  |  0.250 0.250 0.250 0.250 | -2058.250 5 
511  0 0.221 0.181 0.000 0.000 0.000  108.000000 108.000000 128.000000 108.000000 = 452  |  0.250 0.250 0.250 0.250 | -2059.400 5 
512  0 0.226 0.181 0.000 0.000 0.000  108.000000 108.000000 128.000000 108.000000 = 452  |  0.250 0.250 0.250 0.250 | -2059.725 5 
513  1 0.226 0.180 0.000 0.000 0.000  108.000000 108.000000 128.000000 108.000000 = 452  |  0.250 0.250 0.250 0.250 | -2059.339 5 
514  1 0.226 0.179 0.000 0.000 0.000  108.000000 108.000000 128.000000 108.000000 = 452  |  0.250 0.250 0.250 0.250 | -2060.158 5 
515  1 0.226 0.179 0.000 0.000 0.000  108.000000 108.000000 128.000000 108.000000 = 452  |  0.250 0.250 0.250 0.250 | -2059.466 5 
516  1 0.226 0.180 0.000 0.000 0.000  108.000000 108.000000 128.000000 108.000000 = 452  |  0.250 0.250 0.250 0.250 | -2059.677 5 
517  1 0.226 0.179 0.000 0.000 0.000  108.000000 108.000000 128.000000 108.000000 = 452  |  0.250 0.250 0.250 0.250 | -2059.635 5 
518  0 0.227 0.179 0.000 0.000 0.000  108.000000 108.000000 128.000000 108.000000 = 452  |  0.250 0.250 0.250 0.250 | -2059.997 5 
519  1 0.227 0.179 0.000 0.000 0.000  108.000000 108.000000 128.000000 108.000000 = 452  |  0.250 0.250 0.250 0.250 | -2059.518 5 
520  0 0.226 0.179 0.000 0.000 0.000  108.000000 108.000000 128.000000 108.000000 = 452  |  0.250 0.250 0.250 0.250 | -2058.961 5 
521  0 0.226 0.179 0.000 0.000 0.000  108.000000 108.000000 128.000000 108.000000 = 452  |  0.250 0.250 0.250 0.250 | -2058.789 5 
522  1 0.226 0.178 0.000 0.000 0.000  108.000000 108.000000 128.000000 108.000000 = 452  |  0.250 0.250 0.250 0.250 | -2061.165 5 
523  0 0.225 0.178 0.000 0.000 0.000  108.000000 108.000000 128.000000 108.000000 = 452  |  0.250 0.250 0.250 0.250 | -2059.381 5 
524  0 0.228 0.178 0.000 0.000 0.000  108.000000 108.000000 128.000000 108.000000 = 452  |  0.250 0.250 0.250 0.250 | -2060.913 5 
525  0 0.229 0.178 0.000 0.000 0.000  108.000000 108.000000 128.000000 108.000000 = 452  |  0.250 0.250 0.250 0.250 | -2060.503 5 
526  1 0.229 0.177 0.000 0.000 0.000  108.000000 108.000000 128.000000 108.000000 = 452  |  0.250 0.250 0.250 0.250 | -2061.292 5 
527  1 0.229 0.179 0.000 0.000 0.000  108.000000 108.000000 128.000000 108.000000 = 452  |  0.250 0.250 0.250 0.250 | -2059.835 5 
528  1 0.229 0.178 0.000 0.000 0.000  108.000000 108.000000 128.000000 108.000000 = 452  |  0.250 0.250 0.250 0.250 | -2060.318 5 
529  1 0.229 0.177 0.000 0.000 0.000  108.000000 108.000000 128.000000 108.000000 = 452  |  0.250 0.250 0.250 0.250 | -2060.009 5 
530  1 0.229 0.178 0.000 0.000 0.000  108.000000 108.000000 128.000000 108.000000 = 452  |  0.250 0.250 0.250 0.250 | -2059.159 5 
531  1 0.229 0.178 0.000 0.000 0.000  108.000000 108.000000 128.000000 108.000000 = 452  |  0.250 0.250 0.250 0.250 | -2060.033 5 
532  0 0.228 0.178 0.000 0.000 0.000  108.000000 108.000000 128.000000 108.000000 = 452  |  0.250 0.250 0.250 0.250 | -2060.366 5 
533  1 0.228 0.177 0.000 0.000 0.000  108.000000 108.000000 128.000000 108.000000 = 452  |  0.250 0.250 0.250 0.250 | -2060.715 5 
534  1 0.228 0.178 0.000 0.000 0.000  108.000000 108.000000 128.000000 108.000000 = 452  |  0.250 0.250 0.250 0.250 | -2060.885 5 
535  1 0.228 0.178 0.000 0.000 0.000  108.000000 108.000000 128.000000 108.000000 = 452  |  0.250 0.250 0.250 0.250 | -2061.271 5 
536  1 0.228 0.177 0.000 0.000 0.000  108.000000 108.000000 128.000000 108.000000 = 452  |  0.250 0.250 0.250 0.250 | -2061.401 5 
537  1 0.228 0.178 0.000 0.000 0.000  108.000000 108.000000 128.000000 108.000000 = 452  |  0.250 0.250 0.250 0.250 | -2060.725 5 
538  1 0.228 0.178 0.000 0.000 0.000  108.000000 108.000000 128.000000 108.000000 = 452  |  0.250 0.250 0.250 0.250 | -2061.671 5 
539  1 0.228 0.179 0.000 0.000 0.000  108.000000 108.000000 128.000000 108.000000 = 452  |  0.250 0.250 0.250 0.250 | -2060.796 5 
540  0 0.228 0.179 0.000 0.000 0.000  108.000000 108.000000 128.000000 108.000000 = 452  |  0.250 0.250 0.250 0.250 | -2061.377 5 
541  1 0.228 0.180 0.000 0.000 0.000  108.000000 108.000000 128.000000 108.000000 = 452  |  0.250 0.250 0.250 0.250 | -2063.272 5 
542  0 0.228 0.180 0.000 0.000 0.000  108.000000 108.000000 128.000000 108.000000 = 452  |  0.250 0.250 0.250 0.250 | -2063.355 5 
543  1 0.228 0.179 0.000 0.000 0.000  108.000000 108.000000 128.000000 108.000000 = 452  |  0.250 0.250 0.250 0.250 | -2063.964 5 
544  1 0.228 0.179 0.000 0.000 0.000  108.000000 108.000000 128.000000 108.000000 = 452  |  0.250 0.250 0.250 0.250 | -2062.974 5 
545  0 0.227 0.179 0.000 0.000 0.000  108.000000 108.000000 128.000000 108.000000 = 452  |  0.250 0.250 0.250 0.250 | -2062.623 5 
546  0 0.228 0.179 0.000 0.000 0.000  108.000000 108.000000 128.000000 108.000000 = 452  |  0.250 0.250 0.250 0.250 | -2063.982 5 
547  0 0.227 0.179 0.000 0.000 0.000  108.000000 108.000000 128.000000 108.000000 = 452  |  0.250 0.250 0.250 0.250 | -2063.146 5 
548  1 0.227 0.178 0.000 0.000 0.000  108.000000 108.000000 128.000000 108.000000 = 452  |  0.250 0.250 0.250 0.250 | -2064.157 5 
549  0 0.229 0.178 0.000 0.000 0.000  108.000000 108.000000 128.000000 108.000000 = 452  |  0.250 0.250 0.250 0.250 | -2064.088 5 
550  1 0.229 0.179 0.000 0.000 0.000  108.000000 108.000000 128.000000 108.000000 = 452  |  0.250 0.250 0.250 0.250 | -2064.379 5 
551  2 0.229 0.179 0.400 0.000 0.000  108.000000 108.000000 128.000000 108.000000 = 452  |  0.250 0.250 0.250 0.250 | -2063.839 5 
552  2 0.229 0.179 0.444 0.000 0.000  108.000000 109.000000 128.000000 107.000000 = 452  |  0.250 0.250 0.250 0.250 | -2069.336 5 
553  0 0.227 0.179 0.444 0.000 0.000  108.000000 108.000000 128.000000 108.000000 = 452  |  0.250 0.250 0.250 0.250 | -2062.518 5 
554  2 0.227 0.179 0.308 0.000 0.000  108.000000 108.000000 128.000000 108.000000 = 452  |  0.250 0.250 0.250 0.250 | -2063.039 5 
555  1 0.227 0.178 0.308 0.000 0.000  108.000000 108.000000 128.000000 108.000000 = 452  |  0.250 0.250 0.250 0.250 | -2062.395 5 
556  0 0.229 0.178 0.308 0.000 0.000  108.000000 108.000000 128.000000 108.000000 = 452  |  0.250 0.250 0.250 0.250 | -2065.271 5 
557  0 0.228 0.178 0.308 0.000 0.000  108.000000 108.000000 128.000000 108.000000 = 452  |  0.250 0.250 0.250 0.250 | -2065.740 5 
558  0 0.226 0.178 0.308 0.000 0.000  108.000000 108.000000 128.000000 108.000000 = 452  |  0.250 0.250 0.250 0.250 | -2065.591 5 
559  0 0.227 0.178 0.308 0.000 0.000  108.000000 108.000000 128.000000 108.000000 = 452  |  0.250 0.250 0.250 0.250 | -2064.805 5 
560  2 0.227 0.178 0.235 0.000 0.000  108.000000 108.000000 128.000000 108.000000 = 452  |  0.250 0.250 0.250 0.250 | -2064.751 5 
561  0 0.227 0.178 0.235 0.000 0.000  108.000000 108.000000 128.000000 108.000000 = 452  |  0.250 0.250 0.250 0.250 | -2065.319 5 
562  0 0.231 0.178 0.235 0.000 0.000  108.000000 108.000000 128.000000 108.000000 = 452  |  0.250 0.250 0.250 0.250 | -2065.757 5 
563  2 0.231 0.178 0.286 0.000 0.000  108.000000 108.000000 128.000000 108.000000 = 452  |  0.250 0.250 0.250 0.250 | -2065.121 5 
564  2 0.231 0.178 0.240 0.000 0.000  108.000000 109.000000 128.000000 107.000000 = 452  |  0.250 0.250 0.250 0.250 | -2067.656 5 
565  1 0.231 0.179 0.240 0.000 0.000  108.000000 109.000000 128.000000 107.000000 = 452  |  0.250 0.249 0.247 0.254 | -2068.039 5 
566  0 0.231 0.179 0.240 0.000 0.000  108.000000 109.000000 128.000000 107.000000 = 452  |  0.250 0.249 0.247 0.254 | -2064.720 5 
567  0 0.230 0.179 0.240 0.000 0.000  108.000000 109.000000 128.000000 107.000000 = 452  |  0.250 0.249 0.247 0.254 | -2065.190 5 
568  1 0.230 0.180 0.240 0.000 0.000  108.000000 109.000000 128.000000 107.000000 = 452  |  0.250 0.249 0.247 0.254 | -2064.857 5 
569  2 0.230 0.180 0.276 0.000 0.000  108.000000 109.000000 128.000000 107.000000 = 452  |  0.250 0.249 0.247 0.254 | -2066.056 5 
570  0 0.234 0.180 0.276 0.000 0.000  108.000000 108.000000 128.000000 108.000000 = 452  |  0.250 0.249 0.247 0.254 | -2063.411 5 
571  0 0.235 0.180 0.276 0.000 0.000  108.000000 108.000000 128.000000 108.000000 = 452  |  0.250 0.249 0.247 0.254 | -2061.880 5 
572  2 0.235 0.180 0.242 0.000 0.000  108.000000 108.000000 128.000000 108.000000 = 452  |  0.250 0.249 0.247 0.254 | -2062.483 5 
573  2 0.235 0.180 0.216 0.000 0.000  108.000000 108.000000 128.000000 108.000000 = 452  |  0.250 0.249 0.247 0.254 | -2062.932 5 
574  1 0.235 0.180 0.216 0.000 0.000  108.000000 108.000000 128.000000 108.000000 = 452  |  0.250 0.250 0.250 0.250 | -2061.912 5 
575  0 0.238 0.180 0.216 0.000 0.000  108.000000 108.000000 128.000000 108.000000 = 452  |  0.250 0.250 0.250 0.250 | -2063.454 5 
576  1 0.238 0.181 0.216 0.000 0.000  108.000000 108.000000 128.000000 108.000000 = 452  |  0.250 0.250 0.250 0.250 | -2065.591 5 
577  1 0.238 0.180 0.216 0.000 0.000  108.000000 108.000000 128.000000 108.000000 = 452  |  0.250 0.250 0.250 0.250 | -2064.855 5 
578  1 0.238 0.180 0.216 0.000 0.000  108.000000 108.000000 128.000000 108.000000 = 452  |  0.250 0.250 0.250 0.250 | -2065.709 5 
579  2 0.238 0.180 0.195 0.000 0.000  108.000000 108.000000 128.000000 108.000000 = 452  |  0.250 0.250 0.250 0.250 | -2065.105 5 
580  2 0.238 0.180 0.222 0.000 0.000  108.000000 108.000000 128.000000 108.000000 = 452  |  0.244 0.261 0.250 0.243 | -2064.938 5 
581  0 0.237 0.180 0.222 0.000 0.000  110.000000 108.000000 125.000000 109.000000 = 452  |  0.244 0.261 0.250 0.243 | -2080.431 5 
582  1 0.237 0.179 0.222 0.000 0.000  110.000000 108.000000 125.000000 109.000000 = 452  |  0.244 0.261 0.250 0.243 | -2080.532 5 
583  0 0.237 0.179 0.222 0.000 0.000  110.000000 108.000000 125.000000 109.000000 = 452  |  0.244 0.261 0.250 0.243 | -2066.320 5 
584  0 0.241 0.179 0.222 0.000 0.000  110.000000 108.000000 125.000000 109.000000 = 452  |  0.244 0.261 0.250 0.243 | -2065.445 5 
585  1 0.241 0.179 0.222 0.000 0.000  110.000000 108.000000 125.000000 109.000000 = 452  |  0.244 0.261 0.250 0.243 | -2066.843 5 
586  1 0.241 0.180 0.222 0.000 0.000  110.000000 108.000000 125.000000 109.000000 = 452  |  0.244 0.261 0.250 0.243 | -2065.721 5 
587  0 0.241 0.180 0.222 0.000 0.000  110.000000 108.000000 125.000000 109.000000 = 452  |  0.244 0.261 0.250 0.243 | -2064.717 5 
588  2 0.241 0.180 0.204 0.000 0.000  110.000000 108.000000 125.000000 109.000000 = 452  |  0.244 0.261 0.250 0.243 | -2065.537 5 
589  0 0.241 0.180 0.204 0.000 0.000  110.000000 108.000000 125.000000 109.000000 = 452  |  0.244 0.261 0.250 0.243 | -2065.990 5 
590  0 0.240 0.180 0.204 0.000 0.000  110.000000 108.000000 125.000000 109.000000 = 452  |  0.244 0.261 0.250 0.243 | -2065.034 5 
591  0 0.243 0.180 0.204 0.000 0.000  110.000000 108.000000 125.000000 109.000000 = 452  |  0.244 0.261 0.250 0.243 | -2064.580 5 
592  2 0.243 0.180 0.189 0.000 0.000  110.000000 108.000000 125.000000 109.000000 = 452  |  0.244 0.261 0.250 0.243 | -2065.870 5 
593  0 0.242 0.180 0.189 0.000 0.000  110.000000 108.000000 125.000000 109.000000 = 452  |  0.244 0.261 0.250 0.243 | -2065.506 5 
594  1 0.242 0.179 0.189 0.000 0.000  110.000000 108.000000 125.000000 109.000000 = 452  |  0.244 0.261 0.250 0.243 | -2065.511 5 
595  1 0.242 0.180 0.189 0.000 0.000  110.000000 108.000000 125.000000 109.000000 = 452  |  0.244 0.261 0.250 0.243 | -2065.484 5 
596  0 0.242 0.180 0.189 0.000 0.000  110.000000 108.000000 125.000000 109.000000 = 452  |  0.244 0.261 0.250 0.243 | -2065.689 5 
597  2 0.242 0.180 0.175 0.000 0.000  110.000000 108.000000 125.000000 109.000000 = 452  |  0.244 0.261 0.250 0.243 | -2066.877 5 
598  1 0.242 0.180 0.175 0.000 0.000  110.000000 108.000000 125.000000 109.000000 = 452  |  0.244 0.261 0.250 0.243 | -2066.399 5 
599  2 0.242 0.180 0.164 0.000 0.000  110.000000 108.000000 125.000000 109.000000 = 452  |  0.244 0.261 0.250 0.243 | -2065.339 5 
600  0 0.243 0.180 0.164 0.000 0.000  110.000000 108.000000 125.000000 109.000000 = 452  |  0.244 0.261 0.250 0.243 | -2066.054 5 
601  0 0.247 0.180 0.164 0.000 0.000  110.000000 108.000000 125.000000 109.000000 = 452  |  0.244 0.261 0.250 0.243 | -2067.042 5 
602  0 0.246 0.180 0.164 0.000 0.000  110.000000 108.000000 125.000000 109.000000 = 452  |  0.244 0.261 0.250 0.243 | -2066.954 5 
603  0 0.245 0.180 0.164 0.000 0.000  110.000000 108.000000 125.000000 109.000000 = 452  |  0.244 0.261 0.250 0.243 | -2067.501 5 
604  2 0.245 0.180 0.185 0.000 0.000  110.000000 108.000000 125.000000 109.000000 = 452  |  0.250 0.261 0.243 0.244 | -2066.850 5 
605  2 0.245 0.180 0.174 0.000 0.000  108.000000 110.000000 125.000000 109.000000 = 452  |  0.250 0.261 0.243 0.244 | -2078.722 5 
606  0 0.244 0.180 0.174 0.000 0.000  108.000000 110.000000 125.000000 109.000000 = 452  |  0.250 0.261 0.243 0.244 | -2078.693 5 
607  2 0.244 0.180 0.164 0.000 0.000  108.000000 110.000000 125.000000 109.000000 = 452  |  0.250 0.261 0.243 0.244 | -2079.213 5 
608  0 0.244 0.180 0.164 0.000 0.000  108.000000 110.000000 125.000000 109.000000 = 452  |  0.250 0.261 0.243 0.244 | -2079.150 5 
609  1 0.244 0.179 0.164 0.000 0.000  108.000000 110.000000 125.000000 109.000000 = 452  |  0.250 0.261 0.243 0.244 | -2079.022 5 
610  2 0.244 0.179 0.156 0.000 0.000  108.000000 110.000000 125.000000 109.000000 = 452  |  0.250 0.261 0.243 0.244 | -2067.761 5 
611  1 0.244 0.178 0.156 0.000 0.000  108.000000 110.000000 125.000000 109.000000 = 452  |  0.250 0.261 0.243 0.244 | -2066.610 5 
612  1 0.244 0.179 0.156 0.000 0.000  108.000000 110.000000 125.000000 109.000000 = 452  |  0.250 0.261 0.243 0.244 | -2066.768 5 
613  1 0.244 0.179 0.156 0.000 0.000  108.000000 110.000000 125.000000 109.000000 = 452  |  0.250 0.261 0.243 0.244 | -2068.049 5 
614  2 0.244 0.179 0.148 0.000 0.000  108.000000 110.000000 125.000000 109.000000 = 452  |  0.250 0.261 0.243 0.244 | -2067.028 5 
615  2 0.244 0.179 0.141 0.000 0.000  108.000000 110.000000 125.000000 109.000000 = 452  |  0.250 0.261 0.243 0.244 | -2067.575 5 
616  0 0.242 0.179 0.141 0.000 0.000  108.000000 110.000000 125.000000 109.000000 = 452  |  0.250 0.261 0.243 0.244 | -2067.768 5 
617  0 0.241 0.179 0.141 0.000 0.000  108.000000 110.000000 125.000000 109.000000 = 452  |  0.250 0.261 0.243 0.244 | -2067.532 5 
618  2 0.241 0.179 0.157 0.000 0.000  108.000000 110.000000 125.000000 109.000000 = 452  |  0.250 0.261 0.243 0.244 | -2067.832 5 
619  1 0.241 0.178 0.157 0.000 0.000  109.000000 110.000000 124.000000 109.000000 = 452  |  0.247 0.265 0.243 0.242 | -2074.411 5 
620  0 0.240 0.178 0.157 0.000 0.000  109.000000 110.000000 124.000000 109.000000 = 452  |  0.247 0.265 0.243 0.242 | -2067.515 5 
621  1 0.240 0.179 0.157 0.000 0.000  109.000000 110.000000 124.000000 109.000000 = 452  |  0.247 0.265 0.243 0.243 | -2068.249 5 
622  1 0.240 0.180 0.157 0.000 0.000  109.000000 110.000000 124.000000 109.000000 = 452  |  0.247 0.265 0.242 0.242 | -2067.534 5 
623  2 0.240 0.180 0.151 0.000 0.000  109.000000 110.000000 124.000000 109.000000 = 452  |  0.247 0.265 0.242 0.242 | -2068.945 5 
624  0 0.239 0.180 0.151 0.000 0.000  109.000000 110.000000 124.000000 109.000000 = 452  |  0.247 0.265 0.242 0.242 | -2068.776 5 
625  2 0.239 0.180 0.144 0.000 0.000  109.000000 110.000000 124.000000 109.000000 = 452  |  0.247 0.265 0.242 0.242 | -2069.000 5 
626  2 0.239 0.180 0.139 0.000 0.000  109.000000 110.000000 124.000000 109.000000 = 452  |  0.247 0.265 0.242 0.242 | -2068.962 5 
627  2 0.239 0.180 0.133 0.000 0.000  109.000000 110.000000 124.000000 109.000000 = 452  |  0.247 0.265 0.242 0.242 | -2069.379 5 
628  2 0.239 0.180 0.147 0.000 0.000  109.000000 110.000000 124.000000 109.000000 = 452  |  0.250 0.266 0.239 0.243 | -2068.303 5 
629  2 0.239 0.180 0.142 0.000 0.000  108.000000 111.000000 124.000000 109.000000 = 452  |  0.250 0.266 0.239 0.243 | -2074.527 5 
630  1 0.239 0.181 0.142 0.000 0.000  108.000000 111.000000 124.000000 109.000000 = 452  |  0.250 0.266 0.239 0.243 | -2075.339 5 
631  2 0.239 0.181 0.154 0.000 0.000  108.000000 111.000000 124.000000 109.000000 = 452  |  0.250 0.266 0.239 0.243 | -2068.702 5 
632  2 0.239 0.181 0.149 0.000 0.000  109.000000 110.000000 124.000000 109.000000 = 452  |  0.250 0.266 0.239 0.243 | -2075.118 5 
633  2 0.239 0.181 0.144 0.000 0.000  109.000000 110.000000 124.000000 109.000000 = 452  |  0.250 0.266 0.239 0.243 | -2075.164 5 
634  2 0.239 0.181 0.140 0.000 0.000  109.000000 110.000000 124.000000 109.000000 = 452  |  0.250 0.266 0.239 0.243 | -2075.037 5 
635  1 0.239 0.182 0.140 0.000 0.000  109.000000 110.000000 124.000000 109.000000 = 452  |  0.247 0.265 0.242 0.242 | -2075.060 5 
636  1 0.239 0.183 0.140 0.000 0.000  109.000000 110.000000 124.000000 109.000000 = 452  |  0.247 0.266 0.242 0.242 | -2069.130 5 
637  2 0.239 0.183 0.135 0.000 0.000  109.000000 110.000000 124.000000 109.000000 = 452  |  0.247 0.266 0.242 0.242 | -2068.121 5 
638  1 0.239 0.184 0.135 0.000 0.000  109.000000 110.000000 124.000000 109.000000 = 452  |  0.247 0.266 0.242 0.242 | -2068.407 5 
639  1 0.239 0.185 0.135 0.000 0.000  109.000000 110.000000 124.000000 109.000000 = 452  |  0.247 0.266 0.242 0.242 | -2069.110 5 
640  1 0.239 0.186 0.135 0.000 0.000  109.000000 110.000000 124.000000 109.000000 = 452  |  0.247 0.267 0.242 0.242 | -2069.380 5 
641  0 0.238 0.186 0.135 0.000 0.000  109.000000 110.000000 124.000000 109.000000 = 452  |  0.247 0.267 0.242 0.242 | -2069.483 5 
642  1 0.238 0.187 0.135 0.000 0.000  109.000000 110.000000 124.000000 109.000000 = 452  |  0.247 0.267 0.242 0.242 | -2069.293 5 
643  2 0.238 0.187 0.131 0.000 0.000  109.000000 110.000000 124.000000 109.000000 = 452  |  0.247 0.267 0.242 0.242 | -2070.516 5 
644  1 0.238 0.186 0.131 0.000 0.000  109.000000 110.000000 124.000000 109.000000 = 452  |  0.247 0.266 0.242 0.242 | -2069.799 5 
645  2 0.238 0.186 0.128 0.000 0.000  109.000000 110.000000 124.000000 109.000000 = 452  |  0.247 0.266 0.242 0.242 | -2068.778 5 
646  2 0.238 0.186 0.138 0.000 0.000  109.000000 110.000000 124.000000 109.000000 = 452  |  0.250 0.267 0.238 0.242 | -2068.939 5 
647  2 0.238 0.186 0.134 0.000 0.000  108.000000 111.000000 124.000000 109.000000 = 452  |  0.250 0.267 0.238 0.242 | -2068.143 5 
648  1 0.238 0.186 0.134 0.000 0.000  108.000000 111.000000 124.000000 109.000000 = 452  |  0.250 0.267 0.238 0.242 | -2068.662 5 
649  2 0.238 0.186 0.131 0.000 0.000  108.000000 111.000000 124.000000 109.000000 = 452  |  0.250 0.267 0.238 0.242 | -2069.288 5 
650  2 0.238 0.186 0.127 0.000 0.000  108.000000 111.000000 124.000000 109.000000 = 452  |  0.250 0.267 0.238 0.242 | -2070.176 5 
651  0 0.237 0.186 0.127 0.000 0.000  108.000000 111.000000 124.000000 109.000000 = 452  |  0.250 0.267 0.238 0.242 | -2070.026 5 
652  1 0.237 0.186 0.127 0.000 0.000  108.000000 111.000000 124.000000 109.000000 = 452  |  0.250 0.267 0.238 0.242 | -2069.810 5 
653  0 0.238 0.186 0.127 0.000 0.000  108.000000 111.000000 124.000000 109.000000 = 452  |  0.250 0.267 0.238 0.242 | -2069.343 5 
654  2 0.238 0.186 0.124 0.000 0.000  108.000000 111.000000 124.000000 109.000000 = 452  |  0.250 0.267 0.238 0.242 | -2070.147 5 
655  2 0.238 0.186 0.121 0.000 0.000  108.000000 111.000000 124.000000 109.000000 = 452  |  0.250 0.267 0.238 0.242 | -2069.339 5 
656  0 0.238 0.186 0.121 0.000 0.000  108.000000 111.000000 124.000000 109.000000 = 452  |  0.250 0.267 0.238 0.242 | -2069.726 5 
657  0 0.238 0.186 0.121 0.000 0.000  108.000000 111.000000 124.000000 109.000000 = 452  |  0.250 0.267 0.238 0.242 | -2069.182 5 
658  1 0.238 0.187 0.121 0.000 0.000  108.000000 111.000000 124.000000 109.000000 = 452  |  0.250 0.267 0.238 0.241 | -2068.834 5 
659  0 0.240 0.187 0.121 0.000 0.000  108.000000 111.000000 124.000000 109.000000 = 452  |  0.250 0.267 0.238 0.241 | -2069.888 5 
[...]
1236  1 0.246 0.172 0.075 0.000 0.000  118.000000 109.000000 122.000000 103.000000 = 452  |  0.216 0.248 0.256 0.280 | -2083.733 4 
1237  1 0.246 0.172 0.075 0.000 0.000  118.000000 109.000000 122.000000 103.000000 = 452  |  0.216 0.250 0.256 0.278 | -2084.472 4 
1238  1 0.246 0.172 0.075 0.000 0.000  118.000000 109.000000 122.000000 103.000000 = 452  |  0.217 0.246 0.256 0.281 | -2085.071 4 
1239  1 0.246 0.172 0.075 0.000 0.000  118.000000 109.000000 122.000000 103.000000 = 452  |  0.217 0.246 0.256 0.281 | -2083.052 4 
1240  1 0.246 0.172 0.075 0.000 0.000  118.000000 109.000000 122.000000 103.000000 = 452  |  0.217 0.245 0.257 0.282 | -2084.793 4 
1241  2 0.246 0.172 0.075 0.000 0.000  118.000000 109.000000 122.000000 103.000000 = 452  |  0.217 0.245 0.257 0.282 | -2085.619 4 
1242  2 0.246 0.172 0.075 0.000 0.000  118.000000 109.000000 122.000000 103.000000 = 452  |  0.217 0.245 0.257 0.282 | -2083.515 4 
1243  2 0.246 0.172 0.074 0.000 0.000  118.000000 109.000000 122.000000 103.000000 = 452  |  0.217 0.245 0.257 0.282 | -2083.673 4 
1244  0 0.246 0.172 0.074 0.000 0.000  118.000000 109.000000 122.000000 103.000000 = 452  |  0.217 0.245 0.257 0.282 | -2082.809 4 
1245  2 0.246 0.172 0.074 0.000 0.000  118.000000 109.000000 122.000000 103.000000 = 452  |  0.217 0.245 0.257 0.282 | -2084.627 4 
1246  0 0.246 0.172 0.074 0.000 0.000  118.000000 109.000000 122.000000 103.000000 = 452  |  0.217 0.245 0.257 0.282 | -2085.512 4 
1247  0 0.245 0.172 0.074 0.000 0.000  118.000000 109.000000 122.000000 103.000000 = 452  |  0.217 0.245 0.257 0.282 | -2085.740 4 
1248  1 0.245 0.171 0.074 0.000 0.000  118.000000 109.000000 122.000000 103.000000 = 452  |  0.217 0.246 0.256 0.281 | -2085.467 4 
1249  1 0.245 0.171 0.074 0.000 0.000  118.000000 109.000000 122.000000 103.000000 = 452  |  0.217 0.246 0.256 0.281 | -2084.872 4 
1250  0 0.245 0.171 0.074 0.000 0.000  118.000000 109.000000 122.000000 103.000000 = 452  |  0.217 0.246 0.256 0.281 | -2085.524 4 
1251  0 0.245 0.171 0.074 0.000 0.000  118.000000 109.000000 122.000000 103.000000 = 452  |  0.217 0.246 0.256 0.281 | -2084.089 4 
1252  2 0.245 0.171 0.074 0.000 0.000  118.000000 109.000000 122.000000 103.000000 = 452  |  0.217 0.246 0.256 0.281 | -2084.501 4 
1253  2 0.245 0.171 0.073 0.000 0.000  118.000000 109.000000 122.000000 103.000000 = 452  |  0.217 0.246 0.256 0.281 | -2087.082 4 
1254  0 0.245 0.171 0.073 0.000 0.000  118.000000 109.000000 122.000000 103.000000 = 452  |  0.217 0.246 0.256 0.281 | -2085.149 4 
1255  0 0.246 0.171 0.073 0.000 0.000  118.000000 109.000000 122.000000 103.000000 = 452  |  0.217 0.246 0.256 0.281 | -2085.839 4 
1256  0 0.247 0.171 0.073 0.000 0.000  118.000000 109.000000 122.000000 103.000000 = 452  |  0.217 0.246 0.256 0.281 | -2084.857 4 
1257  1 0.247 0.172 0.073 0.000 0.000  118.000000 109.000000 122.000000 103.000000 = 452  |  0.217 0.246 0.257 0.281 | -2086.051 4 
1258  2 0.247 0.172 0.073 0.000 0.000  118.000000 109.000000 122.000000 103.000000 = 452  |  0.217 0.246 0.257 0.281 | -2086.076 4 
1259  0 0.246 0.172 0.073 0.000 0.000  118.000000 109.000000 122.000000 103.000000 = 452  |  0.217 0.246 0.257 0.281 | -2085.735 4 
1260  2 0.246 0.172 0.073 0.000 0.000  118.000000 109.000000 122.000000 103.000000 = 452  |  0.217 0.246 0.257 0.281 | -2086.642 4 
1261  0 0.246 0.172 0.073 0.000 0.000  118.000000 109.000000 122.000000 103.000000 = 452  |  0.217 0.246 0.257 0.281 | -2085.857 4 
1262  2 0.246 0.172 0.072 0.000 0.000  118.000000 109.000000 122.000000 103.000000 = 452  |  0.217 0.246 0.257 0.281 | -2085.943 4 
1263  0 0.245 0.172 0.072 0.000 0.000  118.000000 109.000000 122.000000 103.000000 = 452  |  0.217 0.246 0.257 0.281 | -2086.266 4 
1264  0 0.245 0.172 0.072 0.000 0.000  118.000000 109.000000 122.000000 103.000000 = 452  |  0.217 0.246 0.257 0.281 | -2086.011 4 
1265  1 0.245 0.171 0.072 0.000 0.000  118.000000 109.000000 122.000000 103.000000 = 452  |  0.217 0.246 0.256 0.281 | -2086.699 4 
1266  1 0.245 0.171 0.072 0.000 0.000  118.000000 109.000000 122.000000 103.000000 = 452  |  0.217 0.246 0.256 0.281 | -2086.940 4 
1267  1 0.245 0.171 0.072 0.000 0.000  118.000000 109.000000 122.000000 103.000000 = 452  |  0.216 0.247 0.257 0.280 | -2086.971 4 
1268  2 0.245 0.171 0.072 0.000 0.000  118.000000 109.000000 122.000000 103.000000 = 452  |  0.216 0.247 0.257 0.280 | -2086.759 4 
1269  1 0.245 0.170 0.072 0.000 0.000  118.000000 109.000000 122.000000 103.000000 = 452  |  0.216 0.247 0.257 0.280 | -2086.577 4 
1270  1 0.245 0.170 0.072 0.000 0.000  118.000000 109.000000 122.000000 103.000000 = 452  |  0.216 0.247 0.257 0.280 | -2087.297 4 
1271  2 0.245 0.170 0.072 0.000 0.000  118.000000 109.000000 122.000000 103.000000 = 452  |  0.216 0.247 0.257 0.280 | -2086.602 4 
1272  0 0.244 0.170 0.072 0.000 0.000  118.000000 109.000000 122.000000 103.000000 = 452  |  0.216 0.247 0.257 0.280 | -2086.740 4 
1273  2 0.244 0.170 0.071 0.000 0.000  118.000000 109.000000 122.000000 103.000000 = 452  |  0.216 0.247 0.257 0.280 | -2085.244 4 
1274  0 0.244 0.170 0.071 0.000 0.000  118.000000 109.000000 122.000000 103.000000 = 452  |  0.216 0.247 0.257 0.280 | -2085.947 4 
1275  1 0.244 0.170 0.071 0.000 0.000  118.000000 109.000000 122.000000 103.000000 = 452  |  0.217 0.247 0.256 0.281 | -2086.293 4 
1276  2 0.244 0.170 0.071 0.000 0.000  118.000000 109.000000 122.000000 103.000000 = 452  |  0.217 0.247 0.256 0.281 | -2086.436 4 
1277  0 0.245 0.170 0.071 0.000 0.000  118.000000 109.000000 122.000000 103.000000 = 452  |  0.217 0.247 0.256 0.281 | -2086.558 4 
1278  2 0.245 0.170 0.071 0.000 0.000  118.000000 109.000000 122.000000 103.000000 = 452  |  0.217 0.247 0.256 0.281 | -2087.461 4 
1279  2 0.245 0.170 0.070 0.000 0.000  118.000000 109.000000 122.000000 103.000000 = 452  |  0.217 0.247 0.256 0.281 | -2086.259 4 
1280  0 0.244 0.170 0.070 0.000 0.000  118.000000 109.000000 122.000000 103.000000 = 452  |  0.217 0.247 0.256 0.281 | -2086.557 4 
1281  0 0.244 0.170 0.070 0.000 0.000  118.000000 109.000000 122.000000 103.000000 = 452  |  0.217 0.247 0.256 0.281 | -2085.099 4 
1282  2 0.244 0.170 0.070 0.000 0.000  118.000000 109.000000 122.000000 103.000000 = 452  |  0.217 0.247 0.256 0.281 | -2086.992 4 
1283  1 0.244 0.170 0.070 0.000 0.000  118.000000 109.000000 122.000000 103.000000 = 452  |  0.217 0.247 0.256 0.281 | -2084.506 4 
1284  0 0.243 0.170 0.070 0.000 0.000  118.000000 109.000000 122.000000 103.000000 = 452  |  0.217 0.247 0.256 0.281 | -2086.788 4 
1285  0 0.242 0.170 0.070 0.000 0.000  118.000000 109.000000 122.000000 103.000000 = 452  |  0.217 0.247 0.256 0.281 | -2086.448 4 
1286  0 0.244 0.170 0.070 0.000 0.000  118.000000 109.000000 122.000000 103.000000 = 452  |  0.217 0.247 0.256 0.281 | -2085.689 4 
1287  0 0.244 0.170 0.070 0.000 0.000  118.000000 109.000000 122.000000 103.000000 = 452  |  0.217 0.247 0.256 0.281 | -2085.620 4 
1288  0 0.244 0.170 0.070 0.000 0.000  118.000000 109.000000 122.000000 103.000000 = 452  |  0.217 0.247 0.256 0.281 | -2084.432 4 
1289  1 0.244 0.169 0.070 0.000 0.000  118.000000 109.000000 122.000000 103.000000 = 452  |  0.217 0.246 0.256 0.281 | -2084.787 4 
1290  1 0.244 0.169 0.070 0.000 0.000  118.000000 109.000000 122.000000 103.000000 = 452  |  0.217 0.245 0.256 0.282 | -2084.503 4 
1291  2 0.244 0.169 0.070 0.000 0.000  118.000000 109.000000 122.000000 103.000000 = 452  |  0.217 0.245 0.256 0.282 | -2085.495 4 
1292  2 0.244 0.169 0.070 0.000 0.000  118.000000 109.000000 122.000000 103.000000 = 452  |  0.217 0.245 0.256 0.282 | -2084.583 4 
1293  0 0.244 0.169 0.070 0.000 0.000  118.000000 109.000000 122.000000 103.000000 = 452  |  0.217 0.245 0.256 0.282 | -2082.786 4 
1294  2 0.244 0.169 0.069 0.000 0.000  118.000000 109.000000 122.000000 103.000000 = 452  |  0.217 0.245 0.256 0.282 | -2083.590 4 
1295  1 0.244 0.169 0.069 0.000 0.000  118.000000 109.000000 122.000000 103.000000 = 452  |  0.216 0.249 0.257 0.278 | -2084.131 4 
1296  2 0.244 0.169 0.069 0.000 0.000  118.000000 109.000000 122.000000 103.000000 = 452  |  0.216 0.249 0.257 0.278 | -2083.348 4 
1297  2 0.244 0.169 0.069 0.000 0.000  118.000000 109.000000 122.000000 103.000000 = 452  |  0.216 0.249 0.257 0.278 | -2084.418 4 
1298  2 0.244 0.169 0.068 0.000 0.000  118.000000 109.000000 122.000000 103.000000 = 452  |  0.216 0.249 0.257 0.278 | -2084.717 4 
1299  0 0.243 0.169 0.068 0.000 0.000  118.000000 109.000000 122.000000 103.000000 = 452  |  0.216 0.249 0.257 0.278 | -2084.651 4 
1300  0 0.244 0.169 0.068 0.000 0.000  118.000000 109.000000 122.000000 103.000000 = 452  |  0.216 0.249 0.257 0.278 | -2083.672 4 
1301  1 0.244 0.168 0.068 0.000 0.000  118.000000 109.000000 122.000000 103.000000 = 452  |  0.217 0.247 0.256 0.281 | -2084.057 4 
1302  0 0.244 0.168 0.068 0.000 0.000  118.000000 109.000000 122.000000 103.000000 = 452  |  0.217 0.247 0.256 0.281 | -2084.530 4 
1303  2 0.244 0.168 0.068 0.000 0.000  118.000000 109.000000 122.000000 103.000000 = 452  |  0.217 0.247 0.256 0.281 | -2083.565 4 
1304  0 0.243 0.168 0.068 0.000 0.000  118.000000 109.000000 122.000000 103.000000 = 452  |  0.217 0.247 0.256 0.281 | -2085.794 4 
1305  1 0.243 0.168 0.068 0.000 0.000  118.000000 109.000000 122.000000 103.000000 = 452  |  0.217 0.248 0.255 0.280 | -2084.226 4 
1306  0 0.243 0.168 0.068 0.000 0.000  118.000000 109.000000 122.000000 103.000000 = 452  |  0.217 0.248 0.255 0.280 | -2085.029 4 
1307  0 0.242 0.168 0.068 0.000 0.000  118.000000 109.000000 122.000000 103.000000 = 452  |  0.217 0.248 0.255 0.280 | -2086.103 4 
1308  0 0.241 0.168 0.068 0.000 0.000  118.000000 109.000000 122.000000 103.000000 = 452  |  0.217 0.248 0.255 0.280 | -2085.093 4 
1309  2 0.241 0.168 0.070 0.000 0.000  118.000000 109.000000 122.000000 103.000000 = 452  |  0.217 0.248 0.255 0.280 | -2084.914 4 
1310  0 0.241 0.168 0.070 0.000 0.000  119.000000 109.000000 123.000000 101.000000 = 452  |  0.217 0.248 0.255 0.280 | -2176.279 4 
1311  1 0.241 0.168 0.070 0.000 0.000  119.000000 109.000000 123.000000 101.000000 = 452  |  0.214 0.213 0.266 0.314 | -2177.928 4 
1312  2 0.241 0.168 0.070 0.000 0.000  119.000000 109.000000 123.000000 101.000000 = 452  |  0.214 0.213 0.266 0.314 | -2086.250 4 
1313  2 0.241 0.168 0.069 0.000 0.000  119.000000 109.000000 123.000000 101.000000 = 452  |  0.214 0.213 0.266 0.314 | -2085.235 4 
1314  1 0.241 0.167 0.069 0.000 0.000  119.000000 109.000000 123.000000 101.000000 = 452  |  0.213 0.217 0.267 0.309 | -2087.214 4 
1315  2 0.241 0.167 0.069 0.000 0.000  119.000000 109.000000 123.000000 101.000000 = 452  |  0.213 0.217 0.267 0.309 | -2086.162 4 
1316  0 0.240 0.167 0.069 0.000 0.000  119.000000 109.000000 123.000000 101.000000 = 452  |  0.213 0.217 0.267 0.309 | -2085.130 4 
1317  1 0.240 0.167 0.069 0.000 0.000  119.000000 109.000000 123.000000 101.000000 = 452  |  0.213 0.213 0.267 0.314 | -2086.540 4 
1318  2 0.240 0.167 0.069 0.000 0.000  119.000000 109.000000 123.000000 101.000000 = 452  |  0.213 0.213 0.267 0.314 | -2086.971 4 
1319  1 0.240 0.167 0.069 0.000 0.000  119.000000 109.000000 123.000000 101.000000 = 452  |  0.214 0.214 0.265 0.313 | -2086.631 4 
1320  1 0.240 0.167 0.069 0.000 0.000  119.000000 109.000000 123.000000 101.000000 = 452  |  0.213 0.210 0.267 0.317 | -2087.394 4 
1321  2 0.240 0.167 0.068 0.000 0.000  119.000000 109.000000 123.000000 101.000000 = 452  |  0.213 0.210 0.267 0.317 | -2086.723 4 
1322  2 0.240 0.167 0.068 0.000 0.000  119.000000 109.000000 123.000000 101.000000 = 452  |  0.213 0.210 0.267 0.317 | -2087.505 4 
1323  0 0.242 0.167 0.068 0.000 0.000  119.000000 109.000000 123.000000 101.000000 = 452  |  0.213 0.210 0.267 0.317 | -2087.532 4 
1324  1 0.242 0.166 0.068 0.000 0.000  119.000000 109.000000 123.000000 101.000000 = 452  |  0.214 0.210 0.266 0.317 | -2088.377 4 
1325  0 0.242 0.166 0.068 0.000 0.000  119.000000 109.000000 123.000000 101.000000 = 452  |  0.214 0.210 0.266 0.317 | -2086.995 4 
1326  1 0.242 0.166 0.068 0.000 0.000  119.000000 109.000000 123.000000 101.000000 = 452  |  0.214 0.210 0.266 0.317 | -2087.058 4 
1327  1 0.242 0.167 0.068 0.000 0.000  119.000000 109.000000 123.000000 101.000000 = 452  |  0.213 0.211 0.268 0.315 | -2087.264 4 
1328  0 0.241 0.167 0.068 0.000 0.000  119.000000 109.000000 123.000000 101.000000 = 452  |  0.213 0.211 0.268 0.315 | -2087.123 4 
1329  2 0.241 0.167 0.068 0.000 0.000  119.000000 109.000000 123.000000 101.000000 = 452  |  0.213 0.211 0.268 0.315 | -2087.527 4 
1330  0 0.241 0.167 0.068 0.000 0.000  119.000000 109.000000 123.000000 101.000000 = 452  |  0.213 0.211 0.268 0.315 | -2086.661 4 
1331  2 0.241 0.167 0.068 0.000 0.000  119.000000 109.000000 123.000000 101.000000 = 452  |  0.213 0.211 0.268 0.315 | -2087.328 4 
1332  2 0.241 0.167 0.067 0.000 0.000  119.000000 109.000000 123.000000 101.000000 = 452  |  0.213 0.211 0.268 0.315 | -2086.380 4 
1333  0 0.241 0.167 0.067 0.000 0.000  119.000000 109.000000 123.000000 101.000000 = 452  |  0.213 0.211 0.268 0.315 | -2086.637 4 
1334  2 0.241 0.167 0.067 0.000 0.000  119.000000 109.000000 123.000000 101.000000 = 452  |  0.213 0.211 0.268 0.315 | -2087.541 4 
1335  1 0.241 0.166 0.067 0.000 0.000  119.000000 109.000000 123.000000 101.000000 = 452  |  0.213 0.214 0.268 0.312 | -2086.240 4 
1336  1 0.241 0.166 0.067 0.000 0.000  119.000000 109.000000 123.000000 101.000000 = 452  |  0.213 0.215 0.267 0.311 | -2085.296 4 
1337  1 0.241 0.166 0.067 0.000 0.000  119.000000 109.000000 123.000000 101.000000 = 452  |  0.213 0.211 0.268 0.315 | -2086.448 4 
1338  0 0.240 0.166 0.067 0.000 0.000  119.000000 109.000000 123.000000 101.000000 = 452  |  0.213 0.211 0.268 0.315 | -2086.847 4 
1339  2 0.240 0.166 0.067 0.000 0.000  119.000000 109.000000 123.000000 101.000000 = 452  |  0.213 0.211 0.268 0.315 | -2086.852 4 
1340  2 0.240 0.166 0.067 0.000 0.000  119.000000 109.000000 123.000000 101.000000 = 452  |  0.213 0.211 0.268 0.315 | -2086.558 4 
1341  2 0.240 0.166 0.066 0.000 0.000  119.000000 109.000000 123.000000 101.000000 = 452  |  0.213 0.211 0.268 0.315 | -2086.961 4 
1342  0 0.241 0.166 0.066 0.000 0.000  119.000000 109.000000 123.000000 101.000000 = 452  |  0.213 0.211 0.268 0.315 | -2086.307 4 
1343  2 0.241 0.166 0.066 0.000 0.000  119.000000 109.000000 123.000000 101.000000 = 452  |  0.213 0.211 0.268 0.315 | -2085.967 4 
1344  0 0.241 0.166 0.066 0.000 0.000  119.000000 109.000000 123.000000 101.000000 = 452  |  0.213 0.211 0.268 0.315 | -2085.681 4 
1345  1 0.241 0.165 0.066 0.000 0.000  119.000000 109.000000 123.000000 101.000000 = 452  |  0.214 0.211 0.268 0.315 | -2083.429 4 
1346  0 0.242 0.165 0.066 0.000 0.000  119.000000 109.000000 123.000000 101.000000 = 452  |  0.214 0.211 0.268 0.315 | -2085.281 4 
1347  2 0.242 0.165 0.066 0.000 0.000  119.000000 109.000000 123.000000 101.000000 = 452  |  0.214 0.211 0.268 0.315 | -2084.683 4 
1348  2 0.242 0.165 0.066 0.000 0.000  119.000000 109.000000 123.000000 101.000000 = 452  |  0.214 0.211 0.268 0.315 | -2085.682 4 
1349  0 0.241 0.165 0.066 0.000 0.000  119.000000 109.000000 123.000000 101.000000 = 452  |  0.214 0.211 0.268 0.315 | -2085.312 4 
1350  1 0.241 0.166 0.066 0.000 0.000  119.000000 109.000000 123.000000 101.000000 = 452  |  0.213 0.211 0.268 0.315 | -2084.451 4 
1351  2 0.241 0.166 0.065 0.000 0.000  119.000000 109.000000 123.000000 101.000000 = 452  |  0.213 0.211 0.268 0.315 | -2085.390 4 
1352  2 0.241 0.166 0.065 0.000 0.000  119.000000 109.000000 123.000000 101.000000 = 452  |  0.213 0.211 0.268 0.315 | -2085.853 4 
1353  1 0.241 0.166 0.065 0.000 0.000  119.000000 109.000000 123.000000 101.000000 = 452  |  0.213 0.214 0.268 0.312 | -2084.276 4 
1354  2 0.241 0.166 0.065 0.000 0.000  119.000000 109.000000 123.000000 101.000000 = 452  |  0.213 0.214 0.268 0.312 | -2085.186 4 
1355  0 0.241 0.166 0.065 0.000 0.000  119.000000 109.000000 123.000000 101.000000 = 452  |  0.213 0.214 0.268 0.312 | -2085.158 4 
1356  0 0.241 0.166 0.065 0.000 0.000  119.000000 109.000000 123.000000 101.000000 = 452  |  0.213 0.214 0.268 0.312 | -2085.688 4 
1357  1 0.241 0.166 0.065 0.000 0.000  119.000000 109.000000 123.000000 101.000000 = 452  |  0.212 0.211 0.269 0.315 | -2083.429 4 
1358  2 0.241 0.166 0.066 0.000 0.000  119.000000 109.000000 123.000000 101.000000 = 452  |  0.217 0.211 0.264 0.315 | -2085.310 4 
1359  0 0.240 0.166 0.066 0.000 0.000  118.000000 110.000000 123.000000 101.000000 = 452  |  0.217 0.211 0.264 0.315 | -2094.540 4 
1360  0 0.240 0.166 0.066 0.000 0.000  118.000000 110.000000 123.000000 101.000000 = 452  |  0.217 0.211 0.264 0.315 | -2095.776 4 
1361  0 0.239 0.166 0.066 0.000 0.000  118.000000 110.000000 123.000000 101.000000 = 452  |  0.217 0.211 0.264 0.315 | -2095.686 4 
1362  2 0.239 0.166 0.066 0.000 0.000  118.000000 110.000000 123.000000 101.000000 = 452  |  0.217 0.211 0.264 0.315 | -2097.373 4 
1363  1 0.239 0.166 0.066 0.000 0.000  118.000000 110.000000 123.000000 101.000000 = 452  |  0.217 0.211 0.264 0.315 | -2095.836 4 
1364  1 0.239 0.166 0.066 0.000 0.000  118.000000 110.000000 123.000000 101.000000 = 452  |  0.219 0.210 0.262 0.316 | -2087.058 4 
1365  0 0.239 0.166 0.066 0.000 0.000  118.000000 110.000000 123.000000 101.000000 = 452  |  0.219 0.210 0.262 0.316 | -2086.316 4 
1366  1 0.239 0.165 0.066 0.000 0.000  118.000000 110.000000 123.000000 101.000000 = 452  |  0.216 0.215 0.265 0.310 | -2085.762 4 
1367  0 0.239 0.165 0.066 0.000 0.000  118.000000 110.000000 123.000000 101.000000 = 452  |  0.216 0.215 0.265 0.310 | -2085.132 4 
1368  2 0.239 0.165 0.066 0.000 0.000  118.000000 110.000000 123.000000 101.000000 = 452  |  0.216 0.215 0.265 0.310 | -2085.330 4 
1369  1 0.239 0.166 0.066 0.000 0.000  118.000000 110.000000 123.000000 101.000000 = 452  |  0.216 0.207 0.267 0.317 | -2085.333 4 
1370  2 0.239 0.166 0.066 0.000 0.000  118.000000 110.000000 123.000000 101.000000 = 452  |  0.216 0.207 0.267 0.317 | -2087.864 4 
1371  1 0.239 0.166 0.066 0.000 0.000  118.000000 110.000000 123.000000 101.000000 = 452  |  0.216 0.207 0.267 0.317 | -2087.040 4 
1372  0 0.239 0.166 0.066 0.000 0.000  118.000000 110.000000 123.000000 101.000000 = 452  |  0.216 0.207 0.267 0.317 | -2085.447 4 
1373  2 0.239 0.166 0.065 0.000 0.000  118.000000 110.000000 123.000000 101.000000 = 452  |  0.216 0.207 0.267 0.317 | -2086.197 4 
1374  0 0.238 0.166 0.065 0.000 0.000  118.000000 110.000000 123.000000 101.000000 = 452  |  0.216 0.207 0.267 0.317 | -2086.102 4 
1375  0 0.239 0.166 0.065 0.000 0.000  118.000000 110.000000 123.000000 101.000000 = 452  |  0.216 0.207 0.267 0.317 | -2087.844 4 
1376  2 0.239 0.166 0.065 0.000 0.000  118.000000 110.000000 123.000000 101.000000 = 452  |  0.216 0.207 0.267 0.317 | -2087.432 4 
1377  2 0.239 0.166 0.067 0.000 0.000  118.000000 110.000000 123.000000 101.000000 = 452  |  0.217 0.179 0.276 0.342 | -2086.123 4 
1378  2 0.239 0.166 0.067 0.000 0.000  118.000000 110.000000 124.000000 100.000000 = 452  |  0.217 0.179 0.276 0.342 | -2136.643 4 
1379  0 0.238 0.166 0.067 0.000 0.000  118.000000 110.000000 124.000000 100.000000 = 452  |  0.217 0.179 0.276 0.342 | -2137.204 4 
1380  2 0.238 0.166 0.066 0.000 0.000  118.000000 110.000000 124.000000 100.000000 = 452  |  0.217 0.179 0.276 0.342 | -2136.506 4 
1381  1 0.238 0.165 0.066 0.000 0.000  118.000000 110.000000 124.000000 100.000000 = 452  |  0.217 0.179 0.276 0.342 | -2136.798 4 
1382  2 0.238 0.165 0.066 0.000 0.000  118.000000 110.000000 124.000000 100.000000 = 452  |  0.217 0.179 0.276 0.342 | -2137.048 4 
1383  2 0.238 0.165 0.066 0.000 0.000  118.000000 110.000000 124.000000 100.000000 = 452  |  0.217 0.179 0.276 0.342 | -2137.384 4 
1384  0 0.238 0.165 0.066 0.000 0.000  118.000000 110.000000 124.000000 100.000000 = 452  |  0.217 0.179 0.276 0.342 | -2137.663 4 
1385  0 0.237 0.165 0.066 0.000 0.000  118.000000 110.000000 124.000000 100.000000 = 452  |  0.217 0.179 0.276 0.342 | -2138.033 4 
1386  0 0.238 0.165 0.066 0.000 0.000  118.000000 110.000000 124.000000 100.000000 = 452  |  0.217 0.179 0.276 0.342 | -2135.869 4 
