LAMMPS (22 Aug 2018)
Processor partition = 1
OMP_NUM_THREADS environment is not set. Defaulting to 1 thread. (../comm.cpp:87)
  using 1 OpenMP thread(s) per MPI task
Reading data file ...
  orthogonal box = (0 0 0) to (11.68 11.68 11.68)
  1 by 1 by 1 MPI processor grid
  reading atoms ...
  128 atoms
  reading velocities ...
  128 velocities
dynamic group Ni defined
dynamic group Co defined
dynamic group Ti defined
dynamic group Fe defined
Neighbor list info ...
  update every 1 steps, delay 10 steps, check yes
  max neighbors/atom: 2000, page size: 100000
  master list distance cutoff = 8.56034
  ghost atom cutoff = 8.56034
  binsize = 4.28017, bins = 3 3 3
  1 neighbor lists, perpetual/occasional/extra = 1 0 0
  (1) pair eam/alloy, perpetual
      attributes: half, newton on
      pair build: half/bin/atomonly/newton
      stencil: half/bin/3d/newton
      bin: standard
Setting up Verlet run ...
  Unit style    : metal
  Current step  : 0
  Time step     : 0.001
Per MPI rank memory allocation (min/avg/max) = 3.017 | 3.017 | 3.017 Mbytes
Step Temp E_pair E_mol TotEng Press Volume 
       0          800   -546.76626            0   -533.63343   -73613.341    1593.4136 
    5000    425.58199   -542.55054            0   -535.56416    4985.4188    1522.0205 
Loop time of 2.44052 on 1 procs for 5000 steps with 128 atoms

Performance: 177.011 ns/day, 0.136 hours/ns, 2048.743 timesteps/s
100.0% CPU use with 1 MPI tasks x 1 OpenMP threads

MPI task timing breakdown:
Section |  min time  |  avg time  |  max time  |%varavg| %total
---------------------------------------------------------------
Pair    | 2.2385     | 2.2385     | 2.2385     |   0.0 | 91.72
Neigh   | 0          | 0          | 0          |   0.0 |  0.00
Comm    | 0.041441   | 0.041441   | 0.041441   |   0.0 |  1.70
Output  | 2.9564e-05 | 2.9564e-05 | 2.9564e-05 |   0.0 |  0.00
Modify  | 0.13782    | 0.13782    | 0.13782    |   0.0 |  5.65
Other   |            | 0.02272    |            |       |  0.93

Nlocal:    128 ave 128 max 128 min
Histogram: 1 0 0 0 0 0 0 0 0 0
Nghost:    1872 ave 1872 max 1872 min
Histogram: 1 0 0 0 0 0 0 0 0 0
Neighs:    11520 ave 11520 max 11520 min
Histogram: 1 0 0 0 0 0 0 0 0 0

Total # of neighbors = 11520
Ave neighs/atom = 90
Neighbor list builds = 0
Dangerous builds = 0
WARNING: Using 'neigh_modify every 1 delay 0 check yes' setting during minimization (../min.cpp:168)
Setting up Verlet run ...
  Unit style    : metal
  Current step  : 5000
  Time step     : 0.001
Per MPI rank memory allocation (min/avg/max) = 5.147 | 5.147 | 5.147 Mbytes
Step Temp E_pair Volume TotEng Press Density Lx Ly Lz v_cNi v_cCo v_cFe v_cTi 
    5000    425.58199   -542.55054    1522.0205   -535.56416    4985.4188    7.7989902    11.493954    11.516542    11.498176            0            0          128            0 
    5010    434.75562   -542.70138    1522.0764   -535.56441    3869.0396    7.7987036    11.494113    11.516673    11.498308            0            0          128            0 
    5020    423.34675   -542.51456    1522.2298   -535.56488    3756.1213    7.7979177    11.494616    11.516971    11.498668            0            0          128            0 
    5030    396.83689   -542.08025    1522.4782   -535.56576    4640.7452    7.7966456    11.495504    11.517357    11.499269            0            0          128            0 
    5040    366.76595   -541.58785    1522.8417   -535.56701    5727.9801    7.7947845    11.496794    11.517882      11.5002            0            0          128            0 
    5050    357.23171   -541.43308    1523.3438   -535.56875    5543.9981    7.7922153    11.498443    11.518679    11.501546            0            0          128            0 
    5060    383.04982   -541.85891    1523.9784   -535.57075    3449.3248    7.7889708    11.500333    11.519832    11.503294            0            0          128            0 
    5070    422.94954   -542.51504    1524.6967   -535.57189     618.0691    7.7853013    11.502296     11.52128    11.505306            0            0          128            0 
    5080    445.24705   -542.88101    1525.4332   -535.57182   -1307.3977    7.7815424    11.504207    11.522837    11.507397            0            0          128            0 
    5090    436.65014   -542.73932    1526.1427   -535.57126     -1586.78    7.7779247    11.506054    11.524311    11.509429            0            0          128            0 
    5100      404.982   -542.21909    1526.8179   -535.57089   -637.78788    7.7744852    11.507925    11.525605    11.511357            0            0          128            0 
Setting up Verlet run ...
  Unit style    : metal
  Current step  : 5100
  Time step     : 0.001
Per MPI rank memory allocation (min/avg/max) = 5.147 | 5.147 | 5.147 Mbytes
Step Temp E_pair Volume TotEng Press Density Lx Ly Lz v_cNi v_cCo v_cFe v_cTi 
    5100      404.982   -542.21909    1526.8179   -535.57089   -637.78788    7.7744852    11.507925    11.525605    11.511357            0            0          128            0 
    5110    373.73934   -541.70633    1527.4796   -535.57101    371.50453     7.771117    11.509919    11.526746     11.51321            0            0          128            0 
    5120    366.21124   -541.58318    1528.1501   -535.57145     289.0806    7.7677073    11.512053    11.527824    11.515052            0            0          128            0 
    5130    385.86923   -541.90602    1528.8264   -535.57158    -1154.367    7.7642711    11.514222    11.528881    11.516923            0            0          128            0 
    5140      415.719   -542.39549    1529.4748   -535.57103   -3011.8312    7.7609797    11.516253    11.529863    11.518793            0            0          128            0 
    5150     430.9221   -542.64397    1530.0525   -535.56994   -3888.1686    7.7580493    11.518003    11.530673    11.520584            0            0          128            0 
    5160    423.31909   -542.51809    1530.5388   -535.56886   -3494.9613    7.7555844    11.519447    11.531247    11.522228            0            0          128            0 
    5170    409.76496   -542.29489     1530.941   -535.56818   -2902.0695    7.7535469    11.520677    11.531582    11.523689            0            0          128            0 
    5180    408.47908   -542.27366    1531.2715   -535.56805   -3054.1067    7.7518736    11.521788    11.531702    11.524946            0            0          128            0 
    5190    412.53642   -542.34026    1531.5268   -535.56804   -3676.5853    7.7505811    11.522777    11.531603    11.525978            0            0          128            0 
    5200    410.37974   -542.30477    1531.6932   -535.56796   -4058.2628    7.7497395    11.523544    11.531266    11.526799            0            0          128            0 
Setting up Verlet run ...
  Unit style    : metal
  Current step  : 5200
  Time step     : 0.001
Per MPI rank memory allocation (min/avg/max) = 5.147 | 5.147 | 5.147 Mbytes
Step Temp E_pair Volume TotEng Press Density Lx Ly Lz v_cNi v_cCo v_cFe v_cTi 
    5200    410.37974   -542.30477    1531.6932   -535.56796   -4058.2628    7.7497395    11.523544    11.531266    11.526799            0            0          128            0 
    5210    406.17982   -542.23607    1531.7609   -535.56821   -4190.9036    7.7493965    11.523981    11.530674    11.527464            0            0          128            0 
    5220    402.48862   -542.17616    1531.7259   -535.56889   -4399.1105    7.7495736    11.524048    11.529803    11.528004            0            0          128            0 
    5230    395.94962   -542.06961     1531.583   -535.56968   -4685.1399    7.7502971    11.523781    11.528639    11.528359            0            0          128            0 
    5240    393.11654   -542.02407    1531.3248   -535.57065   -5032.6776    7.7516037    11.523229    11.527205    11.528402            0            0          128            0 
    5250    400.02533    -542.1391    1530.9427   -535.57227   -5369.8202    7.7535383     11.52241    11.525532    11.528017            0            0          128            0 
    5260    404.61978    -542.2166    1530.4296   -535.57435   -5058.8883    7.7561379    11.521316    11.523616    11.527164            0            0          128            0 
    5270    398.37223   -542.11608     1529.794   -535.57639   -3716.3058    7.7593604     11.51996    11.521433    11.525917            0            0          128            0 
    5280    391.71946   -542.00851    1529.0678   -535.57803   -1947.3076    7.7630456    11.518405    11.518984     11.52445            0            0          128            0 
    5290     395.5058   -542.07186     1528.292   -535.57922   -807.92103    7.7669861     11.51672    11.516318    11.522956            0            0          128            0 
    5300    407.96598   -542.27727    1527.4942   -535.58009   -501.61506     7.771043    11.514941    11.513518    11.521521            0            0          128            0 
Setting up Verlet run ...
  Unit style    : metal
  Current step  : 5300
  Time step     : 0.001
Per MPI rank memory allocation (min/avg/max) = 5.147 | 5.147 | 5.147 Mbytes
Step Temp E_pair Volume TotEng Press Density Lx Ly Lz v_cNi v_cCo v_cFe v_cTi 
    5300    407.96598   -542.27727    1527.4942   -535.58009   -501.61506     7.771043    11.514941    11.513518    11.521521            0            0          128            0 
    5310    419.26984   -542.46356    1526.6831   -535.58081   -336.67854    7.7751714    11.513072    11.510684    11.520108            0            0          128            0 
    5320    417.80789   -542.43996    1525.8647   -535.58121    475.43357    7.7793418    11.511152    11.507887    11.518652            0            0          128            0 
    5330    401.62894   -542.17402    1525.0592   -535.58087    2037.3782    7.7834507    11.509281    11.505176    11.517155            0            0          128            0 
    5340    385.05479    -541.9009    1524.3036   -535.57983    3751.0114    7.7873089    11.507583    11.502615    11.515712            0            0          128            0 
    5350    382.66687   -541.86032    1523.6384   -535.57844    5006.5574    7.7907085    11.506135    11.500283    11.514469            0            0          128            0 
    5360    396.54078   -542.08674    1523.0937   -535.57711     5534.037    7.7934951    11.504967    11.498261    11.513545            0            0          128            0 
    5370    420.47623   -542.47877    1522.6823   -535.57622    5436.3433    7.7956005    11.504096    11.496591    11.512979            0            0          128            0 
    5380    444.36776   -542.87071    1522.4029   -535.57595    5087.2001    7.7970313    11.503548    11.495254    11.512754            0            0          128            0 
    5390    456.63463   -543.07238    1522.2479   -535.57625    4785.7058    7.7978252    11.503349    11.494209    11.512827            0            0          128            0 
    5400    452.18796   -543.00024    1522.2107   -535.57711    4651.2807     7.798016    11.503507    11.493442    11.513156            0            0          128            0 
Setting up Verlet run ...
  Unit style    : metal
  Current step  : 5400
  Time step     : 0.001
Per MPI rank memory allocation (min/avg/max) = 5.147 | 5.147 | 5.147 Mbytes
Step Temp E_pair Volume TotEng Press Density Lx Ly Lz v_cNi v_cCo v_cFe v_cTi 
    5400    452.18796   -543.00024    1522.2107   -535.57711    4651.2807     7.798016    11.503507    11.493442    11.513156            0            0          128            0 
    5410     429.6978   -542.63222    1522.2889   -535.57828    4870.9266    7.7976154    11.503997    11.492989     11.51371            0            0          128            0 
    5420    398.43147   -542.12035     1522.488   -535.57968    5244.2929    7.7965952    11.504792    11.492923    11.514488            0            0          128            0 
    5430    379.93682   -541.81864    1522.8158   -535.58158    4926.7502    7.7949169    11.505873    11.493306    11.515501            0            0          128            0 
    5440    382.97484   -541.87082     1523.264   -535.58389    3602.4393    7.7926237    11.507207    11.494116    11.516742            0            0          128            0 
    5450     393.1868   -542.04051    1523.8022   -535.58594    2115.4023    7.7898713    11.508722    11.495233    11.518176            0            0          128            0 
    5460    396.55056   -542.09729    1524.3965    -535.5875    1344.2114    7.7868345    11.510343    11.496498    11.519778            0            0          128            0 
    5470    394.98012   -542.07293    1525.0281   -535.58892    1204.9461    7.7836096    11.512033    11.497822    11.521532            0            0          128            0 
    5480    394.18187   -542.06126    1525.6926   -535.59035    1133.5055    7.7802194    11.513792    11.499218    11.523393            0            0          128            0 
    5490    395.83456   -542.08973    1526.3878   -535.59169    800.87536    7.7766758    11.515626    11.500739    11.525283            0            0          128            0 
    5500      398.978    -542.1425    1527.1055   -535.59286    118.21828    7.7730208    11.517541    11.502401    11.527119            0            0          128            0 
Setting up Verlet run ...
  Unit style    : metal
  Current step  : 5500
  Time step     : 0.001
Per MPI rank memory allocation (min/avg/max) = 5.147 | 5.147 | 5.147 Mbytes
Step Temp E_pair Volume TotEng Press Density Lx Ly Lz v_cNi v_cCo v_cFe v_cTi 
    5500      398.978    -542.1425    1527.1055   -535.59286    118.21828    7.7730208    11.517541    11.502401    11.527119            0            0          128            0 
    5510    402.43246   -542.19998    1527.8293   -535.59363   -850.72194    7.7693387    11.519517    11.504157    11.528843            0            0          128            0 
    5520    408.86835   -542.30611    1528.5356   -535.59411   -1893.0319    7.7657482    11.521469    11.505934    11.530438            0            0          128            0 
    5530    411.54938   -542.35035    1529.1999   -535.59434   -2550.0223    7.7623749    11.523254    11.507677    11.531915            0            0          128            0 
    5540    401.56138   -542.18633    1529.8062   -535.59428   -2646.5058    7.7592984    11.524761    11.509369    11.533285            0            0          128            0 
    5550    392.17138   -542.03218    1530.3506   -535.59428   -2820.0761    7.7565381    11.525972    11.511004    11.534538            0            0          128            0 
    5560    399.37109   -542.15052    1530.8272   -535.59443   -3619.8945    7.7541233    11.526944    11.512535    11.535622            0            0          128            0 
    5570    419.35316   -542.47878    1531.2162   -535.59466   -4786.1716    7.7521536    11.527745    11.513859    11.536425            0            0          128            0 
    5580    434.27058   -542.72413    1531.4903   -535.59512   -5389.9053     7.750766    11.528396    11.514882    11.536814            0            0          128            0 
    5590    433.27196   -542.70865    1531.6351   -535.59604   -5053.9856    7.7500333    11.528856    11.515612    11.536712            0            0          128            0 
    5600    421.39965   -542.51519    1531.6574   -535.59747   -4283.3354    7.7499206    11.529037    11.516157    11.536153            0            0          128            0 
Setting up Verlet run ...
  Unit style    : metal
  Current step  : 5600
  Time step     : 0.001
Per MPI rank memory allocation (min/avg/max) = 5.147 | 5.147 | 5.147 Mbytes
Step Temp E_pair Volume TotEng Press Density Lx Ly Lz v_cNi v_cCo v_cFe v_cTi 
    5600    421.39965   -542.51519    1531.6574   -535.59747   -4283.3354    7.7499206    11.529037    11.516157    11.536153            0            0          128            0 
    5610    409.98568   -542.32958    1531.5744   -535.59924   -3698.9573    7.7503403    11.528856    11.516623    11.535244            0            0          128            0 
    5620    405.90407   -542.26459    1531.3993   -535.60125    -3727.656    7.7512265    11.528285    11.517007    11.534111            0            0          128            0 
    5630    405.23805   -542.25584    1531.1311   -535.60343   -4227.6823    7.7525843    11.527353    11.517204    11.532826            0            0          128            0 
    5640    399.68304   -542.16709    1530.7587   -535.60588   -4457.6605    7.7544703    11.526121    11.517094    11.531363            0            0          128            0 
    5650    386.91677   -541.96017    1530.2769   -535.60853   -4047.1345    7.7569117    11.524655     11.51665    11.529645            0            0          128            0 
    5660    374.45896   -541.75836    1529.6948   -535.61123   -3292.5598    7.7598634    11.522994    11.515949    11.527622            0            0          128            0 
    5670    372.54843   -541.72974    1529.0297   -535.61397   -2611.0471    7.7632391    11.521128    11.515114    11.525312            0            0          128            0 
    5680    380.44911   -541.86209    1528.2978   -535.61662   -1978.2998    7.7669566    11.519018    11.514236    11.522784            0            0          128            0 
    5690    389.48028   -542.01253    1527.5152   -535.61881   -1153.0264    7.7709361    11.516654    11.513353    11.520131            0            0          128            0 
    5700    397.51518   -542.14605    1526.7017   -535.62043   -210.60551     7.775077    11.514096    11.512461    11.517446            0            0          128            0 
Setting up Verlet run ...
  Unit style    : metal
  Current step  : 5700
  Time step     : 0.001
Per MPI rank memory allocation (min/avg/max) = 5.147 | 5.147 | 5.147 Mbytes
Step Temp E_pair Volume TotEng Press Density Lx Ly Lz v_cNi v_cCo v_cFe v_cTi 
    5700    397.51518   -542.14605    1526.7017   -535.62043   -210.60551     7.775077    11.514096    11.512461    11.517446            0            0          128            0 
    5710    404.86013   -542.26769      1525.88   -535.62149    705.51396    7.7792638    11.511467    11.511551    11.514786            0            0          128            0 
    5720    411.90654   -542.38391    1525.0729   -535.62203    1703.8407    7.7833808    11.508909    11.510639    11.512164            0            0          128            0 
    5730    423.39412   -542.57283    1524.3045   -535.62238    2630.4768    7.7873043    11.506542    11.509794    11.509577            0            0          128            0 
    5740    436.99073   -542.79644    1523.5971   -535.62278    3291.7645    7.7909198    11.504423    11.509097    11.507051            0            0          128            0 
    5750    440.72327   -542.85809    1522.9679   -535.62316    4015.4762    7.7941386    11.502547    11.508609    11.504663            0            0          128            0 
    5760    429.06392   -542.66694    1522.4354   -535.62341    4952.6223    7.7968647    11.500895    11.508374    11.502527            0            0          128            0 
    5770    411.86409   -542.38496     1522.022   -535.62378    5675.3372    7.7989824    11.499486    11.508447     11.50074            0            0          128            0 
    5780     399.9677   -542.19053    1521.7456   -535.62465    6052.3475    7.8003991    11.498389    11.508856    11.499339            0            0          128            0 
    5790    391.94837   -542.06013    1521.6166   -535.62589    6339.1144    7.8010606    11.497679    11.509604    11.498327            0            0          128            0 
    5800    390.89177   -542.04452    1521.6419   -535.62762    6245.6294    7.8009309     11.49739    11.510689    11.497723            0            0          128            0 
Setting up Verlet run ...
  Unit style    : metal
  Current step  : 5800
  Time step     : 0.001
Per MPI rank memory allocation (min/avg/max) = 5.147 | 5.147 | 5.147 Mbytes
Step Temp E_pair Volume TotEng Press Density Lx Ly Lz v_cNi v_cCo v_cFe v_cTi 
    5800    390.89177   -542.19945    1521.6419   -535.78255    5661.8716    7.8040366     11.49739    11.510689    11.497723            1            0          127            0 
    5810    403.41123   -542.40733    1521.8123   -535.78492    4938.3083    7.8031628    11.497482    11.512079     11.49753            1            0          127            0 
    5820    418.97198   -542.66563    1522.1049   -535.78777    4139.4078    7.8016624      11.4979    11.513694    11.497712            1            0          127            0 
    5830    419.29278   -542.67368    1522.5028   -535.79056     3902.531    7.7996238    11.498645    11.515467    11.498201            1            0          127            0 
    5840    413.08056   -542.57475    1522.9995   -535.79361    3586.0713    7.7970801    11.499742      11.5174    11.498924            1            0          127            0 
    5850    416.62662   -542.63646    1523.5861    -535.7971    2364.9966    7.7940778    11.501154    11.519526    11.499819            1            0          127            0 
    5860     420.6467   -542.70557    1524.2348   -535.80021    821.70233    7.7907608    11.502747    11.521827    11.500824            1            0          127            0 
    5870    413.38247    -542.5888    1524.9101    -535.8027   -165.55158    7.7873107    11.504376    11.524216    11.501906            1            0          127            0 
    5880    393.58784   -542.26592    1525.5888   -535.80477   -324.98466    7.7838465    11.505965    11.526583    11.503072            1            0          127            0 
    5890    369.06813   -541.86523    1526.2661   -535.80659   -115.51038    7.7803923    11.507536    11.528855    11.504341            1            0          127            0 
    5900    357.77441   -541.68161    1526.9452   -535.80837   -428.18047     7.776932    11.509158     11.53101    11.505687            1            0          127            0 
Setting up Verlet run ...
  Unit style    : metal
  Current step  : 5900
  Time step     : 0.001
Per MPI rank memory allocation (min/avg/max) = 5.147 | 5.147 | 5.147 Mbytes
Step Temp E_pair Volume TotEng Press Density Lx Ly Lz v_cNi v_cCo v_cFe v_cTi 
    5900    357.77441   -541.68161    1526.9452   -535.80837   -428.18047     7.776932    11.509158     11.53101    11.505687            1            0          127            0 
    5910    369.29409    -541.8725    1527.6177   -535.81016   -1483.8682    7.7735085    11.510855    11.533049    11.507023            1            0          127            0 
    5920    388.34801   -542.18671    1528.2591   -535.81158   -2476.6492    7.7702461    11.512553    11.534968    11.508241            1            0          127            0 
    5930    399.68549   -542.37389    1528.8457   -535.81264   -2951.3206    7.7672647     11.51414    11.536761    11.509282            1            0          127            0 
    5940    406.51165   -542.48704    1529.3647   -535.81373   -3248.0728    7.7646288    11.515547    11.538404    11.510143            1            0          127            0 
    5950    414.64733   -542.62193    1529.8076   -535.81506   -3633.4061    7.7623804    11.516771    11.539841    11.510821            1            0          127            0 
    5960    420.10411   -542.71308    1530.1651   -535.81664   -3857.9467     7.760567    11.517839       11.541    11.511286            1            0          127            0 
    5970     418.1421   -542.68268    1530.4314   -535.81844   -3728.3563    7.7592168    11.518766    11.541841    11.511525            1            0          127            0 
    5980    411.21351   -542.57093    1530.6085   -535.82043   -3531.5921    7.7583191    11.519527    11.542369    11.511569            1            0          127            0 
    5990    409.43598   -542.54397    1530.6994   -535.82266   -3835.4072    7.7578584    11.520075     11.54261    11.511465            1            0          127            0 
    6000    419.41006   -542.71046    1530.6952   -535.82541   -4861.7945    7.7578793    11.520349    11.542554    11.511215            1            0          127            0 
Setting up Verlet run ...
  Unit style    : metal
  Current step  : 6000
  Time step     : 0.001
Per MPI rank memory allocation (min/avg/max) = 5.147 | 5.147 | 5.147 Mbytes
Step Temp E_pair Volume TotEng Press Density Lx Ly Lz v_cNi v_cCo v_cFe v_cTi 
    6000    419.41006   -542.71046    1530.6952   -535.82541   -4861.7945    7.7578793    11.520349    11.542554    11.511215            1            0          127            0 
    6010    430.80795   -542.90099    1530.5714   -535.82883   -5937.5889    7.7585071    11.520283    11.542147    11.510755            1            0          127            0 
    6020    426.94839   -542.84175    1530.3024   -535.83295   -6120.7801    7.7598707    11.519827    11.541331    11.510002            1            0          127            0 
    6030    401.39284   -542.42662    1529.8841   -535.83734   -4956.1667    7.7619927       11.519    11.540084    11.508925            1            0          127            0 
    6040    366.38676   -541.85587    1529.3432   -535.84125   -2957.2417    7.7647375    11.517895     11.53845    11.507589            1            0          127            0 
    6050    348.81332   -541.57069    1528.7255   -535.84456   -1504.8994    7.7678754    11.516634    11.536516     11.50613            1            0          127            0 
    6060     362.8572   -541.80451    1528.0639   -535.84784   -1430.3793    7.7712385    11.515278     11.53435    11.504664            1            0          127            0 
    6070    395.77789   -542.34866     1527.361   -535.85155   -2158.7239     7.774815     11.51381    11.531956    11.503226            1            0          127            0 
    6080    424.36082   -542.82221    1526.6011   -535.85588   -2415.2235     7.778685    11.512185    11.529302    11.501772            1            0          127            0 
    6090    427.32827   -542.87517    1525.7798   -535.86013   -1241.6907    7.7828719    11.510411    11.526395    11.500257            1            0          127            0 
    6100    403.25519   -542.48285    1524.9256     -535.863    1144.7618    7.7872315    11.508582    11.523328    11.498704            1            0          127            0 
Setting up Verlet run ...
  Unit style    : metal
  Current step  : 6100
  Time step     : 0.001
Per MPI rank memory allocation (min/avg/max) = 5.147 | 5.147 | 5.147 Mbytes
Step Temp E_pair Volume TotEng Press Density Lx Ly Lz v_cNi v_cCo v_cFe v_cTi 
    6100    403.25519   -542.48285    1524.9256     -535.863    1144.7618    7.7872315    11.508582    11.523328    11.498704            1            0          127            0 
    6110    384.31927   -542.17358    1524.0933   -535.86458    3047.7636     7.791484    11.506841    11.520261    11.497228            1            0          127            0 
    6120    395.22557   -542.35434    1523.3267    -535.8663    3252.0706     7.795405    11.505288    11.517314    11.495936            1            0          127            0 
    6130    413.40942   -542.65503    1522.6333   -535.86848    2839.1696    7.7989552    11.503921    11.514519    11.494859            1            0          127            0 
    6140    409.02313   -542.58506    1522.0072   -535.87052    3485.9305    7.8021636    11.502684    11.511874    11.494007            1            0          127            0 
    6150     388.4545   -542.24894    1521.4646   -535.87206    5113.1392    7.8049457    11.501587    11.509419    11.493457            1            0          127            0 
    6160    381.11115   -542.13005    1521.0428   -535.87372    6252.9616    7.8071103    11.500728    11.507225    11.493319            1            0          127            0 
    6170    397.92088   -542.40849    1520.7685    -535.8762    6150.1921    7.8085184    11.500217    11.505333    11.493647            1            0          127            0 
    6180      422.545   -542.81597    1520.6416   -535.87945    5449.2307      7.80917    11.500097    11.503739    11.494401            1            0          127            0 
    6190     436.5488   -543.04955    1520.6483   -535.88315    5093.8539    7.8091356    11.500347    11.502449    11.495491            1            0          127            0 
    6200    436.19974   -543.04787    1520.7815    -535.8872    5209.6045    7.8084518     11.50094    11.501508    11.496845            1            0          127            0 
Setting up Verlet run ...
  Unit style    : metal
  Current step  : 6200
  Time step     : 0.001
Per MPI rank memory allocation (min/avg/max) = 5.147 | 5.147 | 5.147 Mbytes
Step Temp E_pair Volume TotEng Press Density Lx Ly Lz v_cNi v_cCo v_cFe v_cTi 
    6200    436.19974   -543.04787    1520.7815    -535.8872    5209.6045    7.8084518     11.50094    11.501508    11.496845            1            0          127            0 
    6210    430.01741   -542.95106    1521.0441   -535.89188     5244.154    7.8071038     11.50187    11.500963    11.498446            1            0          127            0 
    6220    424.17019    -542.8605    1521.4373   -535.89731    4800.9866    7.8050858     11.50312    11.500803    11.500329            1            0          127            0 
    6230    414.96385   -542.71531    1521.9522   -535.90325    4051.8021    7.8024456    11.504656    11.500936    11.502551            1            0          127            0 
    6240    398.56219   -542.45212    1522.5723   -535.90931    3357.8629    7.7992674    11.506454    11.501234    11.505143            1            0          127            0 
    6250    379.99376   -542.15311     1523.282   -535.91512    2683.1539    7.7956341    11.508496    11.501613    11.508082            1            0          127            0 
    6260    368.79925   -541.97456    1524.0647   -535.92034    1714.3867    7.7916304    11.510763    11.502069    11.511273            1            0          127            0 
    6270    367.20056   -541.95261    1524.8974   -535.92463    427.77732    7.7873756    11.513193    11.502644    11.514555            1            0          127            0 
    6280    370.75273   -542.01433    1525.7496   -535.92803   -848.40967    7.7830261    11.515681    11.503362    11.517782            1            0          127            0 
    6290    375.03684   -542.08763     1526.591   -535.93101   -1654.9398    7.7787361    11.518114    11.504183    11.520877            1            0          127            0 
    6300    378.30014   -542.14424    1527.4022   -535.93405   -1796.6033    7.7746049    11.520442    11.504991     11.52386            1            0          127            0 
Setting up Verlet run ...
  Unit style    : metal
  Current step  : 6300
  Time step     : 0.001
Per MPI rank memory allocation (min/avg/max) = 5.147 | 5.147 | 5.147 Mbytes
Step Temp E_pair Volume TotEng Press Density Lx Ly Lz v_cNi v_cCo v_cFe v_cTi 
    6300    378.30014   -542.14424    1527.4022   -535.93405   -1796.6033    7.7746049    11.520442    11.504991     11.52386            1            0          127            0 
    6310    383.89551   -542.23945    1528.1785    -535.9374   -1677.2721    7.7706558    11.522678    11.505673    11.526797            1            0          127            0 
    6320    398.97733   -542.49054    1528.9206   -535.94092    -2115.905    7.7668841    11.524837    11.506185     11.52972            1            0          127            0 
    6330    425.63807    -542.9315    1529.6159   -535.94421   -3680.1393    7.7633534    11.526878    11.506555    11.532551            1            0          127            0 
    6340    451.91274   -543.36592    1530.2264   -535.94731   -5808.9142    7.7602562    11.528681    11.506794     11.53511            1            0          127            0 
    6350    454.13472   -543.40562    1530.7018   -535.95053   -7002.6782    7.7578458    11.530101    11.506848    11.537218            1            0          127            0 
    6360    424.23973   -542.91861    1531.0133   -535.95428   -6503.3435    7.7562678    11.531075    11.506635    11.538805            1            0          127            0 
    6370    382.03326   -542.23007    1531.1697   -535.95859   -5162.2364    7.7554754    11.531666    11.506109     11.53992            1            0          127            0 
    6380    353.58796   -541.76771    1531.2001   -535.96319   -4199.8018    7.7553214    11.531983    11.505281    11.540662            1            0          127            0 
    6390    350.76614   -541.72616    1531.1262   -535.96797   -3921.3851    7.7556958    11.532069      11.5042    11.541104            1            0          127            0 
    6400     368.5444   -542.02309    1530.9541   -535.97305   -4034.3957    7.7565673    11.531882    11.502923    11.541276            1            0          127            0 
Setting up Verlet run ...
  Unit style    : metal
  Current step  : 6400
  Time step     : 0.001
Per MPI rank memory allocation (min/avg/max) = 5.147 | 5.147 | 5.147 Mbytes
Step Temp E_pair Volume TotEng Press Density Lx Ly Lz v_cNi v_cCo v_cFe v_cTi 
    6400     368.5444   -542.02309    1530.9541   -535.97305   -4034.3957    7.7565673    11.531882    11.502923    11.541276            1            0          127            0 
    6410    396.74438   -542.49162    1530.6802   -535.97865   -4480.9115    7.7579553    11.531363    11.501483    11.541174            1            0          127            0 
    6420    429.43146   -543.03481     1530.292   -535.98525   -5370.8642    7.7599234    11.530485    11.499867    11.540747            1            0          127            0 
    6430    456.48896   -543.48718    1529.7674   -535.99344   -6221.4768    7.7625846    11.529239    11.498026    11.539884            1            0          127            0 
    6440    451.99966    -543.4228    1529.0872   -536.00275   -5746.8845    7.7660377    11.527623    11.495925    11.538479            1            0          127            0 
    6450    403.55903   -542.63606    1528.2636   -536.01122   -3398.0528    7.7702229    11.525677    11.493614     11.53653            1            0          127            0 
    6460    347.47618   -541.72177    1527.3505   -536.01758   -678.01365    7.7748683    11.523495    11.491244    11.534199            1            0          127            0 
    6470    331.49283   -541.46455    1526.4097   -536.02275    479.39801    7.7796604    11.521159    11.488966    11.531717            1            0          127            0 
    6480    357.36726   -541.89477    1525.4687   -536.02822    29.287776    7.7844591    11.518685    11.486821    11.529237            1            0          127            0 
    6490    390.84497   -542.45058    1524.5196   -536.03445   -436.96411    7.7893053    11.516049    11.484748    11.526781            1            0          127            0 
    6500    404.41071   -542.67956    1523.5537   -536.04074    362.44326    7.7942435    11.513287    11.482681    11.524316            1            0          127            0 
Setting up Verlet run ...
  Unit style    : metal
  Current step  : 6500
  Time step     : 0.001
Per MPI rank memory allocation (min/avg/max) = 5.147 | 5.147 | 5.147 Mbytes
Step Temp E_pair Volume TotEng Press Density Lx Ly Lz v_cNi v_cCo v_cFe v_cTi 
    6500    404.41071   -542.67956    1523.5537   -536.04074    362.44326    7.7942435    11.513287    11.482681    11.524316            1            0          127            0 
    6510    399.24219   -542.60012    1522.5902   -536.04615    2172.6458    7.7991761    11.510534    11.480638    11.521832            1            0          127            0 
    6520    394.78789   -542.53162    1521.6709   -536.05077    3864.2859    7.8038876    11.507956    11.478735    11.519364            1            0          127            0 
    6530    398.39239   -542.59537    1520.8369   -536.05535    5062.0914    7.8081673    11.505629    11.477153    11.516966            1            0          127            0 
    6540    397.33411   -542.58255    1520.1193    -536.0599    6330.2105     7.811853    11.503535    11.476057    11.514728            1            0          127            0 
    6550    389.77185   -542.46279    1519.5504   -536.06428    7674.6223    7.8147777    11.501672    11.475553    11.512789            1            0          127            0 
    6560    395.44284     -542.561     1519.162    -536.0694    8044.5115    7.8167758    11.500102    11.475669    11.511301            1            0          127            0 
    6570    418.93529   -542.95335    1518.9636   -536.07609    7019.3552    7.8177968      11.4989    11.476348    11.510319            1            0          127            0 
    6580    436.86506   -543.25562    1518.9347   -536.08402    5787.1155    7.8179454    11.498098    11.477476    11.509772            1            0          127            0 
    6590    432.32779   -543.18979    1519.0497   -536.09268    5482.3039    7.8173535    11.497701    11.478971    11.509542            1            0          127            0 
    6600    409.49912   -542.82421     1519.303   -536.10186    6070.1795    7.8160507    11.497718    11.480848    11.509561            1            0          127            0 
Setting up Verlet run ...
  Unit style    : metal
  Current step  : 6600
  Time step     : 0.001
Per MPI rank memory allocation (min/avg/max) = 5.147 | 5.147 | 5.147 Mbytes
Step Temp E_pair Volume TotEng Press Density Lx Ly Lz v_cNi v_cCo v_cFe v_cTi 
    6600    409.49912   -542.84132     1519.303   -536.11897    6009.6975    7.8160507    11.497718    11.480848    11.509561            1            0          127            0 
    6610    384.02448   -542.43292    1519.7081   -536.12876    6677.7957    7.8139669    11.498162    11.483205    11.509823            1            0          127            0 
    6620    372.92735   -542.26133    1520.2804   -536.13934    6487.3696    7.8110253    11.499005    11.486142     11.51037            1            0          127            0 
    6630    380.61569   -542.39862    1521.0167   -536.15042    5245.6334    7.8072441    11.500174    11.489665    11.511242            1            0          127            0 
    6640     396.8478   -542.67592    1521.8894   -536.16126    3393.4397    7.8027672    11.501593    11.493641    11.512443            1            0          127            0 
    6650    407.42132   -542.85953    1522.8563   -536.17128    1557.4375    7.7978133      11.5032    11.497872    11.513909            1            0          127            0 
    6660    407.66844   -542.87288    1523.8742   -536.18058    84.814608    7.7926043    11.504939    11.502206    11.515524            1            0          127            0 
    6670    398.36873   -542.72906    1524.9082   -536.18942   -874.10257    7.7873203    11.506729    11.506584     11.51716            1            0          127            0 
    6680    380.52892   -542.44454     1525.935   -536.19777   -1355.3556    7.7820805    11.508477    11.511012    11.518731            1            0          127            0 
    6690    364.05126   -542.18192    1526.9415   -536.20564   -1796.1095    7.7769507    11.510127    11.515501    11.520185            1            0          127            0 
    6700    360.03636   -542.12343    1527.9157   -536.21305   -2584.4458     7.771992     11.51167    11.520016    11.521472            1            0          127            0 
Setting up Verlet run ...
  Unit style    : metal
  Current step  : 6700
  Time step     : 0.001
Per MPI rank memory allocation (min/avg/max) = 5.147 | 5.147 | 5.147 Mbytes
Step Temp E_pair Volume TotEng Press Density Lx Ly Lz v_cNi v_cCo v_cFe v_cTi 
    6700    360.03636   -542.12343    1527.9157   -536.21305   -2584.4458     7.771992     11.51167    11.520016    11.521472            1            0          127            0 
    6710    367.36862   -542.25057    1528.8373   -536.21984   -3818.2172     7.767307     11.51311    11.524456    11.522539            1            0          127            0 
    6720    379.91808   -542.46288    1529.6754   -536.22613   -5262.4229    7.7630516    11.514411    11.528678    11.523331            1            0          127            0 
    6730    392.97325   -542.68361    1530.3941   -536.23255   -6411.2603    7.7594057    11.515486    11.532557    11.523792            1            0          127            0 
    6740    400.91628   -542.82116    1530.9643   -536.23971   -6883.9156    7.7565159    11.516219     11.53603    11.523882            1            0          127            0 
    6750    397.34295   -542.77047    1531.3726   -536.24767   -6581.0938    7.7544476    11.516534    11.539082     11.52359            1            0          127            0 
    6760    386.20018     -542.596    1531.6242   -536.25612   -5819.5355    7.7531739     11.51643    11.541729    11.522944            1            0          127            0 
    6770    384.09116   -542.57045    1531.7344    -536.2652   -5338.6765    7.7526162    11.515963    11.543992    11.521982            1            0          127            0 
    6780    394.37341   -542.74933    1531.7128   -536.27528   -5399.7679    7.7527257    11.515198    11.545882    11.520698            1            0          127            0 
    6790    400.52306   -542.86124    1531.5576   -536.28624   -5471.2638    7.7535113    11.514178    11.547408    11.519029            1            0          127            0 
    6800    397.50205   -542.82315     1531.266   -536.29774   -5410.3519    7.7549874    11.512916    11.548597    11.516912            1            0          127            0 
Setting up Verlet run ...
  Unit style    : metal
  Current step  : 6800
  Time step     : 0.001
Per MPI rank memory allocation (min/avg/max) = 5.147 | 5.147 | 5.147 Mbytes
Step Temp E_pair Volume TotEng Press Density Lx Ly Lz v_cNi v_cCo v_cFe v_cTi 
    6800    397.50205   -542.82315     1531.266   -536.29774   -5410.3519    7.7549874    11.512916    11.548597    11.516912            1            0          127            0 
    6810    400.35176   -542.88218    1530.8372   -536.30999   -5657.3375    7.7571598    11.511384    11.549467    11.514352            1            0          127            0 
    6820     409.0496   -543.03806     1530.264   -536.32308   -5959.3746    7.7600656    11.509526    11.549959    11.511409            1            0          127            0 
    6830    406.09356    -543.0028    1529.5394   -536.33636   -5489.3927    7.7637417    11.507329    11.549957    11.508156            1            0          127            0 
    6840    391.05239   -542.76897    1528.6737   -536.34943   -4295.3407    7.7681385    11.504869    11.549395    11.504662            1            0          127            0 
    6850    372.87728   -542.48307     1527.694    -536.3619   -2942.2195    7.7731202    11.502252    11.548321    11.500975            1            0          127            0 
    6860     362.4029   -542.32293    1526.6315   -536.37371   -1939.2565    7.7785297    11.499539    11.546878    11.497124            1            0          127            0 
    6870     365.5236   -542.38585    1525.5102    -536.3854   -1309.8676    7.7842477    11.496737    11.545219    11.493131            1            0          127            0 
    6880    372.23383   -542.50737    1524.3461   -536.39676   -450.44959    7.7901922    11.493852    11.543422    11.489031            1            0          127            0 
    6890    375.77035   -542.57585    1523.1608   -536.40719    974.00305    7.7962543    11.490943    11.541506     11.48491            1            0          127            0 
    6900    380.46364   -542.66234    1521.9884   -536.41664    2648.5224    7.8022598    11.488118    11.539489    11.480899            1            0          127            0 
Setting up Verlet run ...
  Unit style    : metal
  Current step  : 6900
  Time step     : 0.001
Per MPI rank memory allocation (min/avg/max) = 5.147 | 5.147 | 5.147 Mbytes
Step Temp E_pair Volume TotEng Press Density Lx Ly Lz v_cNi v_cCo v_cFe v_cTi 
    6900    380.46364   -542.66234    1521.9884   -536.41664    2648.5224    7.8022598    11.488118    11.539489    11.480899            1            0          127            0 
    6910    384.35804   -542.73488    1520.8695   -536.42525    4304.6204        7.808    11.485497    11.537412    11.477141            1            0          127            0 
    6920    381.34548   -542.69317     1519.845   -536.43299    5898.6245     7.813263    11.483188    11.535331    11.473787            1            0          127            0 
    6930    379.04837   -542.66283    1518.9542   -536.44036    7084.4264    7.8178454    11.481264    11.533334    11.470968            1            0          127            0 
    6940    391.07624   -542.86856     1518.226   -536.44864    7443.7314    7.8215951    11.479765    11.531548    11.468742            1            0          127            0 
    6950    408.64328   -543.16684    1517.6713   -536.45854    7348.1741    7.8244537    11.478695    11.530094    11.467067            1            0          127            0 
    6960    410.22384   -543.20372    1517.2914   -536.46947    7625.7351    7.8264128    11.478078    11.529025    11.465877            1            0          127            0 
    6970    395.84728   -542.97926    1517.0954   -536.48102    8459.1919     7.827424    11.477981     11.52833    11.465183            1            0          127            0 
    6980    380.32917   -542.73686    1517.1043   -536.49336    9255.4616    7.8273779      11.4785    11.527963    11.465097            1            0          127            0 
    6990    375.97919   -542.67907    1517.3379   -536.50699     9118.831    7.8261731    11.479686    11.527883    11.465756            1            0          127            0 
    7000    385.27427   -542.84673    1517.7947   -536.52205    7848.6543    7.8238175     11.48148    11.528075    11.467226            1            0          127            0 
Setting up Verlet run ...
  Unit style    : metal
  Current step  : 7000
  Time step     : 0.001
Per MPI rank memory allocation (min/avg/max) = 5.147 | 5.147 | 5.147 Mbytes
Step Temp E_pair Volume TotEng Press Density Lx Ly Lz v_cNi v_cCo v_cFe v_cTi 
    7000    385.27427   -542.84673    1517.7947   -536.52205    7848.6543    7.8238175     11.48148    11.528075    11.467226            1            0          127            0 
    7010    398.93286   -543.08688    1518.4482   -536.53799    6222.5037    7.8204506    11.483749    11.528532    11.469442            1            0          127            0 
    7020    404.77244   -543.19892    1519.2626   -536.55416    4995.7864    7.8162583     11.48639    11.529246    11.472243            1            0          127            0 
    7030    395.79303   -543.06744    1520.2105   -536.57009    4278.6136    7.8113846    11.489386      11.5302     11.47546            1            0          127            0 
    7040     377.0285   -542.77479    1521.2754   -536.58548    3679.2806    7.8059168    11.492758    11.531363    11.478971            1            0          127            0 
    7050    360.31928   -542.51516     1522.443   -536.60015    2725.2953    7.7999299    11.496505    11.532683    11.482723            1            0          127            0 
    7060    353.60946   -542.41869    1523.6909   -536.61383    1198.8643    7.7935419    11.500565    11.534068    11.486697            1            0          127            0 
    7070    358.31033   -542.50833    1524.9825    -536.6263   -789.67585    7.7869409    11.504821    11.535385     11.49087            1            0          127            0 
    7080    368.74719   -542.69081    1526.2701   -536.63744   -2864.2699    7.7803718    11.509113    11.536486    11.495185            1            0          127            0 
    7090    377.19931    -542.8395    1527.5032   -536.64738   -4567.7819     7.774091    11.513272    11.537257    11.499549            1            0          127            0 
    7100    375.35262    -542.8181      1528.64    -536.6563   -5456.1764    7.7683099    11.517157    11.537659    11.503824            1            0          127            0 
Setting up Verlet run ...
  Unit style    : metal
  Current step  : 7100
  Time step     : 0.001
Per MPI rank memory allocation (min/avg/max) = 5.147 | 5.147 | 5.147 Mbytes
Step Temp E_pair Volume TotEng Press Density Lx Ly Lz v_cNi v_cCo v_cFe v_cTi 
    7100    375.35262    -542.8181      1528.64    -536.6563   -5456.1764    7.7683099    11.517157    11.537659    11.503824            1            0          127            0 
    7110    363.43023   -542.63055    1529.6569   -536.66446   -5653.6224    7.7631452    11.520712    11.537706    11.507878            1            0          127            0 
    7120    359.90266   -542.58085    1530.5456   -536.67267   -6087.7714     7.758638    11.523954    11.537403    11.511626            1            0          127            0 
    7130    374.30784   -542.82628    1531.2922   -536.68163   -7156.8362    7.7548547    11.526895    11.536689    11.515016            1            0          127            0 
    7140    392.21463   -543.13005    1531.8701   -536.69144   -8154.2635    7.7519292    11.529486    11.535469    11.517991            1            0          127            0 
    7150    400.41703   -543.27553    1532.2536   -536.70226   -8527.6111     7.749989    11.531649    11.533682    11.520499            1            0          127            0 
    7160    395.71375   -543.21015    1532.4315   -536.71409   -8250.0793    7.7490896    11.533324    11.531322     11.52252            1            0          127            0 
    7170    380.00755   -542.96465     1532.408   -536.72643    -7554.169    7.7492083    11.534486    11.528424    11.524079            1            0          127            0 
    7180    365.47906    -542.7387    1532.1976   -536.73898   -6899.9687    7.7502726    11.535148    11.525034    11.525224            1            0          127            0 
    7190    365.27673   -542.74844    1531.8136   -536.75205   -6686.3876    7.7522153    11.535345     11.52119    11.525983            1            0          127            0 
    7200    376.12704   -542.94044    1531.2601   -536.76592   -6725.3705    7.7550176    11.535107     11.51691    11.526338            1            0          127            0 
Setting up Verlet run ...
  Unit style    : metal
  Current step  : 7200
  Time step     : 0.001
Per MPI rank memory allocation (min/avg/max) = 5.147 | 5.147 | 5.147 Mbytes
Step Temp E_pair Volume TotEng Press Density Lx Ly Lz v_cNi v_cCo v_cFe v_cTi 
    7200    376.12704   -542.94044    1531.2601   -536.76592   -6725.3705    7.7550176    11.535107     11.51691    11.526338            1            0          127            0 
    7210    385.63728   -543.11119    1530.5355   -536.78056   -6551.6293    7.7586888    11.534452    11.512213    11.526239            1            0          127            0 
    7220    385.52582    -543.1243    1529.6437   -536.79549   -5861.6509    7.7632126    11.533394    11.507139     11.52566            1            0          127            0 
    7230    375.87553   -542.98043    1528.6005   -536.81004   -4623.8517    7.7685105    11.531948    11.501761    11.524629            1            0          127            0 
    7240    361.39886   -542.75629    1527.4353   -536.82355   -2983.4865    7.7744366    11.530152    11.496162    11.523248            1            0          127            0 
    7250    349.16523   -542.56744    1526.1871   -536.83553   -1324.0135    7.7807952    11.528076    11.490416    11.521664            1            0          127            0 
    7260    350.88768   -542.60657    1524.8946   -536.84638    -279.1519      7.78739    11.525808    11.484585    11.520017            1            0          127            0 
    7270    365.97762   -542.86479    1523.5831   -536.85688    125.99392    7.7940934    11.523412    11.478737    11.518368            1            0          127            0 
    7280    376.75738   -543.05177    1522.2644    -536.8669    785.09033    7.8008452    11.520919    11.472953    11.516691            1            0          127            0 
    7290    373.18189   -543.00177     1520.956    -536.8756     2254.669    7.8075556    11.518378    11.467344    11.514962            1            0          127            0 
    7300    364.45554   -542.86559    1519.6933   -536.88267    4120.1872    7.8140432    11.515891    11.462034    11.513218            1            0          127            0 
Setting up Verlet run ...
  Unit style    : metal
  Current step  : 7300
  Time step     : 0.001
Per MPI rank memory allocation (min/avg/max) = 5.147 | 5.147 | 5.147 Mbytes
Step Temp E_pair Volume TotEng Press Density Lx Ly Lz v_cNi v_cCo v_cFe v_cTi 
    7300    364.45554   -542.86559    1519.6933   -536.88267    4120.1872    7.8140432    11.515891    11.462034    11.513218            1            0          127            0 
    7310      361.186   -542.81783    1518.5208   -536.88859    5852.8898    7.8200766    11.513587    11.457136    11.511556            1            0          127            0 
    7320    362.46918   -542.84416    1517.4813   -536.89385     7406.478    7.8254332    11.511579    11.452739      11.5101            1            0          127            0 
    7330    367.20854   -542.92722    1516.6135   -536.89911    8670.4387    7.8299113     11.50994    11.448926    11.508987            1            0          127            0 
    7340    375.57335   -543.07057    1515.9486   -536.90514    9433.0144    7.8333456    11.508704    11.445775    11.508344            1            0          127            0 
    7350    386.61944   -543.25927    1515.5067   -536.91251    9707.3332    7.8356292    11.507876    11.443347     11.50826            1            0          127            0 
    7360    400.00828   -543.48829    1515.2963   -536.92174    9453.5607    7.8367173    11.507475    11.441659    11.508759            1            0          127            0 
    7370    407.38618   -543.62039    1515.3138   -536.93272    9004.6512    7.8366268    11.507542    11.440679    11.509811            1            0          127            0 
    7380    395.78427   -543.44195     1515.552   -536.94474     9013.097    7.8353951     11.50812    11.440375    11.511348            1            0          127            0 
    7390    365.37875   -542.95527    1516.0137    -536.9572    9544.1422    7.8330092    11.509238    11.440778    11.513331            1            0          127            0 
    7400    337.80279   -542.51567    1516.7121   -536.97028    9705.7833     7.829402    11.510887    11.441972    11.515784            1            0          127            0 
Setting up Verlet run ...
  Unit style    : metal
  Current step  : 7400
  Time step     : 0.001
Per MPI rank memory allocation (min/avg/max) = 5.147 | 5.147 | 5.147 Mbytes
Step Temp E_pair Volume TotEng Press Density Lx Ly Lz v_cNi v_cCo v_cFe v_cTi 
    7400    337.80279   -542.51567    1516.7121   -536.97028    9705.7833     7.829402    11.510887    11.441972    11.515784            1            0          127            0 
    7410    338.06258   -542.53394    1517.6514   -536.98429    8424.0829    7.8245566       11.513    11.444001    11.518757            1            0          127            0 
    7420    371.74764   -543.10135    1518.8018   -536.99872    5441.2202      7.81863    11.515454    11.446783    11.522231            1            0          127            0 
    7430    412.54503   -543.78463    1520.0952   -537.01227    1999.2493    7.8119771    11.518104    11.450104    11.526046            1            0          127            0 
    7440    416.45068   -543.86027    1521.4539    -537.0238    176.53657    7.8050007    11.520833    11.453735    11.529959            1            0          127            0 
    7450    373.66805   -543.16776    1522.8357   -537.03361     469.3891    7.7979188    11.523618    11.457557    11.533793            1            0          127            0 
    7460    325.05542   -542.37879    1524.2442   -537.04267    1062.8393    7.7907129    11.526497    11.461598    11.537509            1            0          127            0 
    7470    314.47411   -542.21374    1525.6896   -537.05132   -74.512848    7.7833323    11.529449    11.465924    11.541136            1            0          127            0 
    7480    342.16161   -542.67557    1527.1434   -537.05864   -3003.0548    7.7759226     11.53231    11.470501    11.544659            1            0          127            0 
    7490    374.48118   -543.21132    1528.5366   -537.06382   -6114.9094     7.768835    11.534844    11.475151    11.547972            1            0          127            0 
    7500    384.20845   -543.37458    1529.7947    -537.0674   -7971.4799     7.762446    11.536891    11.479646    11.550902            1            0          127            0 
Setting up Verlet run ...
  Unit style    : metal
  Current step  : 7500
  Time step     : 0.001
Per MPI rank memory allocation (min/avg/max) = 5.147 | 5.147 | 5.147 Mbytes
Step Temp E_pair Volume TotEng Press Density Lx Ly Lz v_cNi v_cCo v_cFe v_cTi 
    7500    384.20845   -545.05762    1529.7947   -538.75044   -3391.3666    7.7507089    11.536891    11.479646    11.550902            0            0          127            1 
    7510     375.7078   -544.92422    1530.9261   -538.75659   -4205.3267    7.7449811    11.538562    11.483968     11.55342            0            0          127            1 
    7520    359.44452   -544.66284    1531.9653   -538.76218   -4482.8506     7.739727    11.540024    11.488192    11.555548            0            0          127            1 
    7530    349.08364   -544.49827    1532.9034    -538.7677   -4790.0016    7.7349907    11.541264    11.492316    11.557232            0            0          127            1 
    7540    355.95008   -544.61679    1533.7301    -538.7735   -5652.0917    7.7308212    11.542191    11.496368    11.558461            0            0          127            1 
    7550    376.98311   -544.96834    1534.4227   -538.77977   -7072.4194    7.7273318    11.542664    11.500334     11.55922            0            0          127            1 
    7560    397.05174   -545.30459    1534.9456   -538.78657   -8479.1538    7.7246995    11.542562    11.504121    11.559455            0            0          127            1 
    7570    400.24033   -545.36432    1535.2639   -538.79396   -9137.4534    7.7230981    11.541843    11.507595    11.559081            0            0          127            1 
    7580    382.25056   -545.07682    1535.3604   -538.80178   -8658.6627    7.7226124    11.540555    11.510641    11.558039            0            0          127            1 
    7590    358.57706    -544.6963    1535.2447   -538.80988   -7501.4985    7.7231946    11.538779    11.513226    11.556351            0            0          127            1 
    7600    350.91615   -544.57915    1534.9415    -538.8185   -6672.5464    7.7247202    11.536571    11.515397    11.554102            0            0          127            1 
Setting up Verlet run ...
  Unit style    : metal
  Current step  : 7600
  Time step     : 0.001
Per MPI rank memory allocation (min/avg/max) = 5.147 | 5.147 | 5.147 Mbytes
Step Temp E_pair Volume TotEng Press Density Lx Ly Lz v_cNi v_cCo v_cFe v_cTi 
    7600    350.91615   -544.57915    1534.9415    -538.8185   -6672.5464    7.7247202    11.536571    11.515397    11.554102            0            0          127            1 
    7610    360.85159   -544.75168    1534.4693   -538.82792   -6448.8893    7.7270972    11.533926    11.517209    11.551377            0            0          127            1 
    7620    371.51323   -544.93663    1533.8339   -538.83785   -6229.4973    7.7302982    11.530811    11.518686    11.548233            0            0          127            1 
    7630     376.3694   -545.02653    1533.0407   -538.84804   -5659.3702     7.734298    11.527229    11.519833    11.544698            0            0          127            1 
    7640    379.67026   -545.09113    1532.1025   -538.85844   -4912.0319    7.7390339     11.52325    11.520671    11.540778            0            0          127            1 
    7650    379.37521   -545.09648    1531.0371   -538.86865    -4118.498    7.7444195    11.518977    11.521238    11.536462            0            0          127            1 
    7660    374.66337   -545.02883    1529.8635   -538.87834   -3284.3876    7.7503603    11.514505    11.521578    11.531756            0            0          127            1 
    7670    369.79873   -544.95819     1528.602   -538.88756   -2421.5291    7.7567565    11.509885    11.521741    11.526708            0            0          127            1 
    7680    362.66962   -544.84956     1527.274   -538.89596   -1283.7508    7.7635009    11.505122    11.521794    11.521411            0            0          127            1 
    7690    350.03466   -544.64875    1525.9083   -538.90257    449.89473    7.7704496    11.500228    11.521805    11.515995            0            0          127            1 
    7700     337.6654    -544.4497    1524.5469   -538.90657    2562.9765    7.7773887    11.495298     11.52183    11.510629            0            0          127            1 
Setting up Verlet run ...
  Unit style    : metal
  Current step  : 7700
  Time step     : 0.001
Per MPI rank memory allocation (min/avg/max) = 5.147 | 5.147 | 5.147 Mbytes
Step Temp E_pair Volume TotEng Press Density Lx Ly Lz v_cNi v_cCo v_cFe v_cTi 
    7700     337.6654    -544.4497    1524.5469   -538.90657    2562.9765    7.7773887    11.495298     11.52183    11.510629            0            0          127            1 
    7710    337.12986   -544.44263    1523.2401    -538.9083    4386.2829    7.7840606    11.490496    11.521925    11.505476            0            0          127            1 
    7720    352.64599   -544.69825    1522.0322    -538.9092    5603.7179    7.7902385    11.485988    11.522162    11.500627            0            0          127            1 
    7730    373.13897   -545.03564    1520.9538   -538.91017    6566.3045    7.7957617    11.481897    11.522631    11.496105            0            0          127            1 
    7740    385.55007   -545.24062    1520.0302   -538.91142    7736.6719    7.8004984    11.478311    11.523415    11.491932            0            0          127            1 
    7750    381.58411   -545.17674    1519.2912   -538.91264    9260.3348     7.804293    11.475303    11.524584     11.48819            0            0          127            1 
    7760      368.348   -544.96079    1518.7738   -538.91398    10567.845    7.8069517    11.472959    11.526212    11.485002            0            0          127            1 
    7770    369.46383   -544.98181    1518.5088   -538.91667    10642.021    7.8083139    11.471355    11.528356    11.482467            0            0          127            1 
    7780    389.52978   -545.31593    1518.4993   -538.92139    9459.7459    7.8083629    11.470501    11.531007     11.48061            0            0          127            1 
    7790    405.40748   -545.58268    1518.7206   -538.92749    8166.6993    7.8072253    11.470335    11.534076    11.479393            0            0          127            1 
    7800    398.69611   -545.47937    1519.1448   -538.93436    7642.6543     7.805045    11.470802    11.537478    11.478748            0            0          127            1 
Setting up Verlet run ...
  Unit style    : metal
  Current step  : 7800
  Time step     : 0.001
Per MPI rank memory allocation (min/avg/max) = 5.147 | 5.147 | 5.147 Mbytes
Step Temp E_pair Volume TotEng Press Density Lx Ly Lz v_cNi v_cCo v_cFe v_cTi 
    7800    398.69611   -545.47937    1519.1448   -538.93436    7642.6543     7.805045    11.470802    11.537478    11.478748            0            0          127            1 
    7810    374.09379   -545.08304    1519.7608    -538.9419    7761.1175    7.8018814    11.471892    11.541192    11.478615            0            0          127            1 
    7820    352.06229    -544.7296     1520.571   -538.95013    7564.6006    7.7977242    11.473609    11.545248    11.478983            0            0          127            1 
    7830    347.99123   -544.67132    1521.5706   -538.95868    6351.1899    7.7926014    11.475911    11.549638     11.47986            0            0          127            1 
    7840    357.62845   -544.83749    1522.7322   -538.96665    4477.3256    7.7866568    11.478704    11.554271    11.481223            0            0          127            1 
    7850    367.40338   -545.00459    1524.0127   -538.97328    2610.9072    7.7801146    11.481877    11.558988    11.483014            0            0          127            1 
    7860     371.7422   -545.08107    1525.3677   -538.97854    942.15488    7.7732035    11.485338    11.563623    11.485155            0            0          127            1 
    7870    369.59941   -545.04998    1526.7568   -538.98262    -553.9323    7.7661312    11.489001    11.568048    11.487552            0            0          127            1 
    7880    359.34264   -544.88453    1528.1439   -538.98555    -1742.441    7.7590818    11.492775    11.572196    11.490094            0            0          127            1 
    7890    344.56813    -544.6439    1529.4996   -538.98746    -2643.516    7.7522043     11.49657    11.576046    11.492667            0            0          127            1 
    7900    334.91113   -544.48651    1530.8006    -538.9886   -3509.4482    7.7456157    11.500329    11.579586    11.495168            0            0          127            1 
Setting up Verlet run ...
  Unit style    : metal
  Current step  : 7900
  Time step     : 0.001
Per MPI rank memory allocation (min/avg/max) = 5.147 | 5.147 | 5.147 Mbytes
Step Temp E_pair Volume TotEng Press Density Lx Ly Lz v_cNi v_cCo v_cFe v_cTi 
    7900    334.91113   -544.48651    1530.8006    -538.9886   -3509.4482    7.7456157    11.500329    11.579586    11.495168            0            0          127            1 
    7910    335.61312   -544.49861    1532.0246   -538.98918   -4453.0436    7.7394277    11.504025    11.582745    11.497526            0            0          127            1 
    7920    344.88383   -544.65089    1533.1471   -538.98926   -5475.2089     7.733761    11.507639      11.5854    11.499702            0            0          127            1 
    7930    361.99201   -544.93166    1534.1417   -538.98919   -6627.7608    7.7287473    11.511114     11.58742    11.501683            0            0          127            1 
    7940    385.80089   -545.32269    1534.9785   -538.98937   -7871.3106    7.7245341    11.514339    11.588709    11.503452            0            0          127            1 
    7950    405.65095   -545.64941    1535.6258   -538.99023   -8883.7048    7.7212778    11.517185     11.58922    11.504953            0            0          127            1 
    7960    404.95255   -545.63968    1536.0584   -538.99196   -9162.5493    7.7191033    11.519564    11.588952    11.506083            0            0          127            1 
    7970    382.16668   -545.26833     1536.268   -538.99467   -8731.7558    7.7180503    11.521464    11.587932    11.506768            0            0          127            1 
    7980    354.61974      -544.82    1536.2628   -538.99855   -8153.5518    7.7180765    11.522933    11.586176    11.507007            0            0          127            1 
    7990     336.5814   -544.52872    1536.0549   -539.00339   -7819.2298    7.7191208    11.524021    11.583679    11.506842            0            0          127            1 
    8000    334.28136    -544.4965    1535.6513   -539.00892   -7840.8349    7.7211498    11.524745    11.580442    11.506311            0            0          127            1 
Setting up Verlet run ...
  Unit style    : metal
  Current step  : 8000
  Time step     : 0.001
Per MPI rank memory allocation (min/avg/max) = 5.147 | 5.147 | 5.147 Mbytes
Step Temp E_pair Volume TotEng Press Density Lx Ly Lz v_cNi v_cCo v_cFe v_cTi 
    8000    334.28136    -544.4965    1535.6513   -539.00892   -7840.8349    7.7211498    11.524745    11.580442    11.506311            0            0          127            1 
    8010    353.23043   -544.81414    1535.0498   -539.01549   -8300.0608    7.7241752    11.525074    11.576472     11.50542            0            0          127            1 
    8020    383.11038   -545.31275    1534.2389   -539.02359   -8760.1412    7.7282578    11.524945    11.571773    11.504142            0            0          127            1 
    8030    394.52157   -545.50924    1533.2087   -539.03276   -8170.8408    7.7334507     11.52431    11.566343    11.502447            0            0          127            1 
    8040    374.02589    -545.1814    1531.9746   -539.04138   -6007.4662      7.73968    11.523194    11.560241     11.50037            0            0          127            1 
    8050    344.71012    -544.7068    1530.5881   -539.04803   -3227.7669    7.7466913    11.521715     11.55361    11.498032            0            0          127            1 
    8060     335.6804    -544.5634    1529.1141   -539.05286   -1268.8443    7.7541589    11.520028    11.546621    11.495595            0            0          127            1 
    8070    345.66368   -544.73089    1527.6003   -539.05646   -255.23426     7.761843    11.518261    11.539393     11.49317            0            0          127            1 
    8080    355.95289    -544.9021    1526.0736   -539.05876    752.14622    7.7696079    11.516488    11.532008    11.490805            0            0          127            1 
    8090    359.52456   -544.96137    1524.5599    -539.0594    2228.0895    7.7773222    11.514754    11.524566     11.48855            0            0          127            1 
    8100    360.59524   -544.97793    1523.0949   -539.05838     3914.269    7.7848028    11.513105    11.517185    11.486512            0            0          127            1 
Setting up Verlet run ...
  Unit style    : metal
  Current step  : 8100
  Time step     : 0.001
Per MPI rank memory allocation (min/avg/max) = 5.147 | 5.147 | 5.147 Mbytes
Step Temp E_pair Volume TotEng Press Density Lx Ly Lz v_cNi v_cCo v_cFe v_cTi 
    8100    360.59524   -544.97793    1523.0949   -539.05838     3914.269    7.7848028    11.513105    11.517185    11.486512            0            0          127            1 
    8110    363.14025   -545.01746    1521.7193   -539.05613    5464.9286    7.7918399    11.511607     11.50997    11.484825            0            0          127            1 
    8120    367.04496   -545.07849    1520.4711   -539.05307     6766.582    7.7982368    11.510355    11.503018    11.483589            0            0          127            1 
    8130     370.1589   -545.12598    1519.3823   -539.04944    7875.9699    7.8038251    11.509462    11.496426    11.482837            0            0          127            1 
    8140    373.45084   -545.17624    1518.4805   -539.04566    8835.0857    7.8084595    11.509019    11.490302     11.48258            0            0          127            1 
    8150    377.59316   -545.24091    1517.7899   -539.04232    9747.6656    7.8120126    11.509068    11.484751    11.482855            0            0          127            1 
    8160    376.67181   -545.22334     1517.334   -539.03988    10879.302    7.8143594    11.509624    11.479863     11.48374            0            0          127            1 
    8170    370.95236   -545.12851    1517.1411   -539.03894    11961.118    7.8153534    11.510728    11.475702    11.485341            0            0          127            1 
    8180    372.87425    -545.1615    1517.2366   -539.04038    12093.314    7.8148614    11.512452    11.472303    11.487747            0            0          127            1 
    8190    385.52678   -545.37298    1517.6245   -539.04415    10953.852    7.8128635    11.514832    11.469649    11.490968            0            0          127            1 
    8200    391.65661   -545.47846     1518.281   -539.04901     9406.558    7.8094856    11.517826    11.467688    11.494915            0            0          127            1 
Setting up Verlet run ...
  Unit style    : metal
  Current step  : 8200
  Time step     : 0.001
Per MPI rank memory allocation (min/avg/max) = 5.147 | 5.147 | 5.147 Mbytes
Step Temp E_pair Volume TotEng Press Density Lx Ly Lz v_cNi v_cCo v_cFe v_cTi 
    8200    391.65661   -545.47846     1518.281   -539.04901     9406.558    7.8094856    11.517826    11.467688    11.494915            0            0          127            1 
    8210    376.93535   -545.24184    1519.1724   -539.05406    8414.6766     7.804903    11.521357    11.466369    11.499463            0            0          127            1 
    8220    348.84115   -544.78592    1520.2767   -539.05933    7946.0395     7.799234    11.525368    11.465666    11.504521            0            0          127            1 
    8230    329.58739   -544.47534    1521.5819   -539.06482    7044.5721    7.7925437    11.529813    11.465584    11.510042            0            0          127            1 
    8240    335.27949    -544.5737    1523.0657   -539.06974    4859.5885    7.7849519    11.534606    11.466096    11.515964            0            0          127            1 
    8250    359.36628   -544.97176    1524.6764   -539.07239    1635.3904     7.776728      11.5396    11.467084     11.52216            0            0          127            1 
    8260    383.48305   -545.36686    1526.3379   -539.07159   -1593.6021    7.7682627    11.544615    11.468357    11.528426            0            0          127            1 
    8270    391.23969   -545.49033    1527.9733   -539.06773   -3831.3391    7.7599479    11.549469    11.469736    11.534542            0            0          127            1 
    8280    374.77561   -545.21455    1529.5286   -539.06222   -4615.0471    7.7520574    11.554021    11.471112    11.540349            0            0          127            1 
    8290    345.90999   -544.73506    1530.9826   -539.05659   -4472.9788    7.7446953    11.558202    11.472448    11.545796            0            0          127            1 
    8300    329.92396   -544.46763    1532.3352   -539.05158   -4617.5509     7.737859       11.562    11.473739      11.5509            0            0          127            1 
Setting up Verlet run ...
  Unit style    : metal
  Current step  : 8300
  Time step     : 0.001
Per MPI rank memory allocation (min/avg/max) = 5.147 | 5.147 | 5.147 Mbytes
Step Temp E_pair Volume TotEng Press Density Lx Ly Lz v_cNi v_cCo v_cFe v_cTi 
    8300    329.92396   -544.46763    1532.3352   -539.05158   -4617.5509     7.737859       11.562    11.473739      11.5509            0            0          127            1 
    8310    337.21863   -544.58251    1533.5802   -539.04672   -5647.3149    7.7315768     11.56541    11.474951    11.555656            0            0          127            1 
    8320     351.2382   -544.80712    1534.6924   -539.04118   -6982.2514    7.7259738    11.568388    11.476011    11.559993            0            0          127            1 
    8330    359.78339   -544.94138    1535.6386   -539.03516   -8106.0409    7.7212135    11.570862    11.476845    11.563805            0            0          127            1 
    8340    370.19615   -545.10671    1536.3891   -539.02956   -9196.9899     7.717442    11.572746    11.477409    11.567005            0            0          127            1 
    8350    382.67483   -545.30686    1536.9154   -539.02486   -10130.523    7.7147989    11.573923    11.477677    11.569521            0            0          127            1 
    8360    385.65686    -545.3525    1537.1945   -539.02154   -10313.156    7.7133985    11.574292    11.477638    11.571292            0            0          127            1 
    8370    375.69628   -545.18727    1537.2205   -539.01983   -9652.2817    7.7132679    11.573838    11.477294    11.572289            0            0          127            1 
    8380    360.45906   -544.93688    1537.0077   -539.01957   -8639.7486    7.7143358    11.572642    11.476652     11.57253            0            0          127            1 
    8390    350.33569   -544.77152    1536.5789    -539.0204   -7827.5347    7.7164884      11.5708    11.475732    11.572072            0            0          127            1 
    8400    351.83609   -544.79793    1535.9528   -539.02217     -7500.79    7.7196339    11.568352    11.474565     11.57098            0            0          127            1 
Setting up Verlet run ...
  Unit style    : metal
  Current step  : 8400
  Time step     : 0.001
Per MPI rank memory allocation (min/avg/max) = 5.147 | 5.147 | 5.147 Mbytes
Step Temp E_pair Volume TotEng Press Density Lx Ly Lz v_cNi v_cCo v_cFe v_cTi 
    8400    351.83609   -544.79793    1535.9528   -539.02217     -7500.79    7.7196339    11.568352    11.474565     11.57098            0            0          127            1 
    8410    364.36519    -545.0063    1535.1366   -539.02487   -7632.3543    7.7237383    11.565281    11.473181    11.569298            0            0          127            1 
    8420    380.14504   -545.26906    1534.1274   -539.02859   -7728.6281    7.7288194    11.561562    11.471588    11.567017            0            0          127            1 
    8430    385.08392    -545.3545    1532.9238   -539.03294   -7059.0457    7.7348876    11.557225    11.469779    11.564103            0            0          127            1 
    8440     368.4637   -545.08552    1531.5433    -539.0368   -5200.9257    7.7418598    11.552369    11.467784    11.560556            0            0          127            1 
    8450      339.721   -544.61582    1530.0306   -539.03894   -2644.8069     7.749514    11.547137    11.465703    11.556469            0            0          127            1 
    8460    323.64172     -544.352    1528.4463   -539.03908     -500.822    7.7575468    11.541665    11.463674    11.552019            0            0          127            1 
    8470    334.40029   -544.52746    1526.8413   -539.03793    597.79708    7.7657012    11.536037    11.461814    11.547392            0            0          127            1 
    8480    357.86453   -544.91067    1525.2436   -539.03595    1165.6305    7.7738358    11.530279    11.460197    11.542698            0            0          127            1 
    8490    374.25429   -545.17669     1523.669   -539.03292    2069.1444    7.7818695    11.524421    11.458882    11.537967            0            0          127            1 
[...]
Step Temp E_pair Volume TotEng Press Density Lx Ly Lz v_cNi v_cCo v_cFe v_cTi 
  137800    407.93236   -595.83387     1642.288   -589.13724    3806.5833    7.0623249    11.698837    11.710271    11.987805           11           22           62           33 
  137810    409.59029   -595.86488    1642.5904   -589.14103    3770.9633    7.0610247     11.69484    11.712226    11.992109           11           22           62           33 
  137820    399.35556   -595.70133    1642.9995    -589.1455    3905.0954    7.0592663    11.691232     11.71467    11.996294           11           22           62           33 
  137830    388.93925   -595.53502    1643.5176   -589.15018    3690.8754    7.0570411    11.688022    11.717596    12.000375           11           22           62           33 
  137840    385.58327   -595.48459    1644.1373   -589.15484    2833.4357    7.0543813    11.685207    11.720957    12.004348           11           22           62           33 
  137850    391.07746   -595.57924    1644.8339   -589.15929    1427.7408    7.0513935    11.682753    11.724662    12.008161           11           22           62           33 
  137860    404.16949    -595.7979    1645.5682   -589.16304   -93.621601    7.0482471    11.680597    11.728588    12.011717           11           22           62           33 
  137870    416.35519   -596.00123     1646.298   -589.16632   -1185.9176    7.0451225    11.678683    11.732608    12.014896           11           22           62           33 
  137880    416.29413   -596.00292    1646.9929   -589.16902   -1678.5572    7.0421501    11.676998    11.736626    12.017587           11           22           62           33 
  137890    404.12673   -595.80602    1647.6387   -589.17186   -1752.0039    7.0393899    11.675559    11.740599    12.019712           11           22           62           33 
  137900    387.89057   -595.54246    1648.2333   -589.17483   -1575.4504    7.0368506    11.674394    11.744503    12.021251           11           22           62           33 
Setting up Verlet run ...
  Unit style    : metal
  Current step  : 137900
  Time step     : 0.001
Per MPI rank memory allocation (min/avg/max) = 5.147 | 5.147 | 5.147 Mbytes
Step Temp E_pair Volume TotEng Press Density Lx Ly Lz v_cNi v_cCo v_cFe v_cTi 
  137900    387.89057   -595.54246    1648.2333   -589.17483   -1575.4504    7.0368506    11.674394    11.744503    12.021251           11           22           62           33 
  137910    381.58601   -595.44164    1648.7806   -589.17751   -1686.3656    7.0345147    11.673529    11.748297    12.022251           11           22           62           33 
  137920    397.29071   -595.70269    1649.2755   -589.18075   -2756.6683    7.0324037    11.672963    11.751897    12.022758           11           22           62           33 
  137930    415.20048   -596.00039    1649.6893   -589.18445   -4093.6553    7.0306398    11.672638    11.755186    12.022745           11           22           62           33 
  137940    405.78104   -595.84956     1649.988   -589.18824   -4262.1915    7.0293672    11.672469    11.758085    12.022131           11           22           62           33 
  137950    376.48728   -595.37316    1650.1679   -589.19273   -3133.0606    7.0286006    11.672417    11.760647    12.020877           11           22           62           33 
  137960    361.43651   -595.13146    1650.2583   -589.19811   -2123.3051    7.0282155    11.672484    11.763034    12.019027           11           22           62           33 
  137970    374.01458   -595.34407    1650.2856   -589.20424   -2213.9235    7.0280994    11.672652    11.765381    12.016654           11           22           62           33 
  137980    392.76632   -595.65849    1650.2485   -589.21082   -2895.6075    7.0282572    11.672872    11.767716    12.013773           11           22           62           33 
  137990    399.01497   -595.76769    1650.1304   -589.21745   -3302.9482    7.0287606     11.67312    11.769989    12.010338           11           22           62           33 
  138000    398.13717    -595.7604      1649.92   -589.22457    -3350.523    7.0296565     11.67342    11.772144    12.006301           11           22           62           33 
Setting up Verlet run ...
  Unit style    : metal
  Current step  : 138000
  Time step     : 0.001
Per MPI rank memory allocation (min/avg/max) = 5.147 | 5.147 | 5.147 Mbytes
Step Temp E_pair Volume TotEng Press Density Lx Ly Lz v_cNi v_cCo v_cFe v_cTi 
  138000    398.13717    -595.7604      1649.92   -589.22457    -3350.523    7.0296565     11.67342    11.772144    12.006301           11           22           62           33 
  138010     398.8007   -595.77869    1649.6162   -589.23196   -3247.7874    7.0309514    11.673797    11.774143    12.001664           11           22           62           33 
  138020    396.90644   -595.75507    1649.2224   -589.23944   -2945.4393    7.0326302    11.674242    11.775963    11.996488           11           22           62           33 
  138030    387.11277   -595.60074    1648.7483   -589.24588   -2285.9938    7.0346525     11.67473    11.777589    11.990882           11           22           62           33 
  138040    375.84387   -595.42194    1648.2126   -589.25207   -1477.7965    7.0369388     11.67527    11.779033    11.984963           11           22           62           33 
  138050    372.54494   -595.37346    1647.6378   -589.25775   -887.73688    7.0393936    11.675918    11.780314    11.978815           11           22           62           33 
  138060    375.59654   -595.42931    1647.0404    -589.2635   -710.07341    7.0419468    11.676749     11.78144    11.972475           11           22           62           33 
  138070    382.51971   -595.54859    1646.4258   -589.26913   -838.02757    7.0445755    11.677805    11.782397    11.965954           11           22           62           33 
  138080    392.01751   -595.71023    1645.7912   -589.27486   -937.78661     7.047292    11.679071    11.783161    11.959268           11           22           62           33 
  138090    401.28488   -595.86754    1645.1344   -589.28003   -767.82596    7.0501056    11.680487    11.783744    11.952455           11           22           62           33 
  138100    409.88259   -596.01342    1644.4605   -589.28478   -272.41348    7.0529949    11.681979    11.784204    11.945566           11           22           62           33 
Setting up Verlet run ...
  Unit style    : metal
  Current step  : 138100
  Time step     : 0.001
Per MPI rank memory allocation (min/avg/max) = 5.147 | 5.147 | 5.147 Mbytes
Step Temp E_pair Volume TotEng Press Density Lx Ly Lz v_cNi v_cCo v_cFe v_cTi 
  138100    409.88259   -596.01342    1644.4605   -589.28478   -272.41348    7.0529949    11.681979    11.784204    11.945566           11           22           62           33 
  138110    410.92142   -596.03546    1643.7838   -589.28976    610.28684    7.0558982    11.683529    11.784617    11.938649           11           22           62           33 
  138120    401.74703   -595.88923    1643.1293   -589.29414    1756.4165    7.0587085    11.685221    11.785027    11.931752           11           22           62           33 
  138130    389.53646    -595.6931     1642.529   -589.29845    2905.0557    7.0612885    11.687208    11.785461    11.924926           11           22           62           33 
  138140    378.90943   -595.52342    1642.0146   -589.30323    3936.1533    7.0635006    11.689644    11.785961    11.918202           11           22           62           33 
  138150    372.55456   -595.42453    1641.6148   -589.30866    4779.4101     7.065221    11.692644    11.786605    11.911592           11           22           62           33 
  138160    376.92767   -595.50274    1641.3517   -589.31508    5107.8899    7.0663533    11.696289     11.78748    11.905088           11           22           62           33 
  138170    390.62741   -595.73567    1641.2338   -589.32311    4882.8919    7.0668612    11.700617    11.788627    11.898671           11           22           62           33 
  138180     404.4082   -595.97104    1641.2549   -589.33226    4541.3129      7.06677    11.705634    11.790041    11.892298           11           22           62           33 
  138190    409.39584    -596.0629    1641.4057   -589.34225    4361.8631    7.0661208    11.711342    11.791705    11.885917           11           22           62           33 
  138200    403.71816   -595.98038    1641.6807   -589.35293    4332.7002    7.0649375    11.717737    11.793617    11.879493           11           22           62           33 
Setting up Verlet run ...
  Unit style    : metal
  Current step  : 138200
  Time step     : 0.001
Per MPI rank memory allocation (min/avg/max) = 5.147 | 5.147 | 5.147 Mbytes
Step Temp E_pair Volume TotEng Press Density Lx Ly Lz v_cNi v_cCo v_cFe v_cTi 
  138200    403.71816   -595.98038    1641.6807   -589.35293    4332.7002    7.0649375    11.717737    11.793617    11.879493           11           22           62           33 
  138210    396.29694   -595.86956    1642.0778   -589.36393    4150.2844    7.0632289    11.724785    11.795803    11.873023           11           22           62           33 
  138220    395.54901   -595.86744    1642.5911   -589.37409    3654.4247    7.0610216    11.732404    11.798277    11.866534           11           22           62           33 
  138230    401.16601    -595.9689    1643.2062   -589.38335    2936.2519    7.0583782    11.740486    11.801005    11.860063           11           22           62           33 
  138240    406.51592   -596.06463    1643.9029   -589.39125    2163.7123     7.055387    11.748932    11.803912    11.853642           11           22           62           33 
  138250    404.99068   -596.04675    1644.6592    -589.3984     1469.781    7.0521424    11.757668    11.806909    11.847276           11           22           62           33 
  138260    394.06799   -595.87431    1645.4556   -589.40528    901.89085    7.0487296    11.766641     11.80993    11.840944           11           22           62           33 
  138270    382.18842   -595.68499    1646.2749   -589.41097    182.01234    7.0452213    11.775789    11.812947    11.834614           11           22           62           33 
  138280    383.26197   -595.70683     1647.096   -589.41518   -944.21768    7.0417091    11.784998    11.815953    11.828255           11           22           62           33 
  138290    394.17181   -595.88882    1647.8872   -589.41808    -2175.374    7.0383285    11.794105    11.818929     11.82182           11           22           62           33 
  138300    396.64798   -595.93118    1648.6149    -589.4198   -2855.5919    7.0352216     11.80296    11.821841    11.815257           11           22           62           33 
Setting up Verlet run ...
  Unit style    : metal
  Current step  : 138300
  Time step     : 0.001
Per MPI rank memory allocation (min/avg/max) = 5.147 | 5.147 | 5.147 Mbytes
Step Temp E_pair Volume TotEng Press Density Lx Ly Lz v_cNi v_cCo v_cFe v_cTi 
  138300    396.64798   -595.93118    1648.6149    -589.4198   -2855.5919    7.0352216     11.80296    11.821841    11.815257           11           22           62           33 
  138310    380.47022   -595.66695    1649.2608   -589.42113   -2784.5815    7.0324665    11.811476    11.824672    11.808536           11           22           62           33 
  138320    355.71147   -595.26112    1649.8257   -589.42174   -2590.3821    7.0300585    11.819637     11.82742    11.801681           11           22           62           33 
  138330    345.06305   -595.08669    1650.3135   -589.42212   -3029.9472    7.0279807    11.827441    11.830067    11.794742           11           22           62           33 
  138340     354.4977   -595.24121    1650.7118   -589.42176   -3973.3555    7.0262848    11.834846    11.832555    11.787728           11           22           62           33 
  138350    369.91974     -595.494    1650.9955   -589.42139   -4777.3655    7.0250774    11.841794    11.834801    11.780601           11           22           62           33 
  138360    384.51154    -595.7338    1651.1424   -589.42164   -5262.3596    7.0244522    11.848246     11.83673    11.773314           11           22           62           33 
  138370    396.66579   -595.93416    1651.1392   -589.42248   -5527.6904    7.0244661    11.854191    11.838292    11.765834           11           22           62           33 
  138380    401.57254   -596.01627     1650.979   -589.42404   -5593.6436    7.0251477    11.859623    11.839466    11.758138           11           22           62           33 
  138390    406.97882   -596.10669    1650.6603   -589.42571   -5700.0122     7.026504    11.864545    11.840235    11.750228           11           22           62           33 
  138400    419.66495   -596.31777    1650.1809   -589.42853   -5837.7648    7.0285452    11.868968    11.840553    11.742123           11           22           62           33 
Setting up Verlet run ...
  Unit style    : metal
  Current step  : 138400
  Time step     : 0.001
Per MPI rank memory allocation (min/avg/max) = 5.147 | 5.147 | 5.147 Mbytes
Step Temp E_pair Volume TotEng Press Density Lx Ly Lz v_cNi v_cCo v_cFe v_cTi 
  138400    419.66495   -596.31777    1650.1809   -589.42853   -5837.7648    7.0285452    11.868968    11.840553    11.742123           11           22           62           33 
  138410    423.35715   -596.38197    1649.5403   -589.43212   -5123.9172    7.0312749    11.872927    11.840358    11.733844           11           22           62           33 
  138420    403.55398   -596.06036    1648.7614    -589.4356   -3088.2686    7.0345964     11.87651    11.839677    11.725439           11           22           62           33 
  138430    377.97791   -595.64328    1647.9008   -589.43838   -849.97522    7.0382701     11.87986    11.838673    11.717009           11           22           62           33 
  138440    372.96933   -595.56303    1647.0195   -589.44035    281.08588    7.0420365    11.883102    11.837549    11.708659           11           22           62           33 
  138450    381.53422    -595.7052    1646.1503   -589.44192    656.60507    7.0457548    11.886281    11.836433    11.700452           11           22           62           33 
  138460    377.18079   -595.63394    1645.3072   -589.44213    1582.4144    7.0493649    11.889388    11.835369    11.692456           11           22           62           33 
  138470    360.30987   -595.35539    1644.5171   -589.44053    3183.8854    7.0527519    11.892433    11.834404      11.6848           11           22           62           33 
  138480     353.9677   -595.24804    1643.8218   -589.43729    4253.4485    7.0557352    11.895457    11.833611    11.677673           11           22           62           33 
  138490     367.9485   -595.47366    1643.2489   -589.43341    4105.9184    7.0581951    11.898466    11.833011    11.671242           11           22           62           33 
  138500     390.8229   -595.84561    1642.7945   -589.42984    3235.3385    7.0601472    11.901412    11.832537    11.665595           11           22           62           33 
Setting up Verlet run ...
  Unit style    : metal
  Current step  : 138500
  Time step     : 0.001
Per MPI rank memory allocation (min/avg/max) = 5.147 | 5.147 | 5.147 Mbytes
Step Temp E_pair Volume TotEng Press Density Lx Ly Lz v_cNi v_cCo v_cFe v_cTi 
  138500     390.8229   -595.84561    1642.7945   -589.42984    3235.3385    7.0601472    11.901412    11.832537    11.665595           11           22           62           33 
  138510    406.84467   -596.10612    1642.4352   -589.42734    2468.7194    7.0616917    11.904221    11.832101    11.660721           11           22           62           33 
  138520    410.80598   -596.16967    1642.1498   -589.42587    2185.2219    7.0629191     11.90684    11.831675     11.65655           11           22           62           33 
  138530    407.59957    -596.1159    1641.9298   -589.42473    2310.2216    7.0638654    11.909249    11.831279     11.65302           11           22           62           33 
  138540    406.25579   -596.09344    1641.7777   -589.42433      2558.84    7.0645198    11.911446    11.830945    11.650121           11           22           62           33 
  138550    410.06597   -596.15616    1641.6995    -589.4245    2654.2695    7.0648564    11.913444    11.830675    11.647878           11           22           62           33 
  138560    413.24636    -596.2095     1641.697   -589.42564     2485.498     7.064867    11.915268    11.830451    11.646298           11           22           62           33 
  138570    410.57516   -596.16744    1641.7658   -589.42742    2281.4195    7.0645712    11.916942    11.830251    11.645346           11           22           62           33 
  138580    399.80424   -595.99229    1641.9006   -589.42909    2402.9873    7.0639909    11.918483    11.830069    11.644977           11           22           62           33 
  138590    382.05936   -595.70329    1642.1049   -589.43139    2890.9811    7.0631121    11.919921    11.829929    11.645158           11           22           62           33 
  138600      365.826   -595.43939     1642.391   -589.43398    3294.4737    7.0618816    11.921302    11.829891    11.645875           11           22           62           33 
Setting up Verlet run ...
  Unit style    : metal
  Current step  : 138600
  Time step     : 0.001
Per MPI rank memory allocation (min/avg/max) = 5.147 | 5.147 | 5.147 Mbytes
Step Temp E_pair Volume TotEng Press Density Lx Ly Lz v_cNi v_cCo v_cFe v_cTi 
  138600      365.826   -595.42204     1642.391   -589.41663    3350.0624    7.0618816    11.921302    11.829891    11.645875           11           22           62           33 
  138610    356.50509   -595.27225    1642.7702   -589.41985    3429.6833    7.0602517    11.922649     11.83001    11.647131           11           22           62           33 
  138620    346.88373   -595.11745    1643.2456     -589.423    3397.4381    7.0582092    11.923929    11.830314    11.648951           11           22           62           33 
  138630    341.73979   -595.03636    1643.8159   -589.42634    3212.2793    7.0557606    11.925102    11.830795    11.651374           11           22           62           33 
  138640    357.44982   -595.29845     1644.474   -589.43054    2425.7674    7.0529367    11.926153      11.8314    11.654415           11           22           62           33 
  138650    387.56785   -595.79691    1645.1971   -589.43458    1029.2501    7.0498367    11.927056    11.832057     11.65801           11           22           62           33 
  138660    408.22534   -596.13942    1645.9468   -589.43798   -424.29156    7.0466257    11.927738    11.832707    11.662014           11           22           62           33 
  138670    410.72831   -596.18322    1646.6826   -589.44069   -1618.0126    7.0434772     11.92811    11.833307    11.666273           11           22           62           33 
  138680    406.40891   -596.11465    1647.3704   -589.44302   -2640.9604    7.0405364    11.928125    11.833783    11.670661           11           22           62           33 
  138690    403.55763   -596.06978    1647.9815   -589.44497   -3402.6203    7.0379255     11.92779    11.834022    11.675084           11           22           62           33 
  138700    398.34783   -595.98617    1648.4953   -589.44687    -3601.154     7.035732    11.927137    11.833915    11.679468           11           22           62           33 
Setting up Verlet run ...
  Unit style    : metal
  Current step  : 138700
  Time step     : 0.001
Per MPI rank memory allocation (min/avg/max) = 5.1