LAMMPS (22 Aug 2018)
Processor partition = 3
OMP_NUM_THREADS environment is not set. Defaulting to 1 thread. (../comm.cpp:87)
  using 1 OpenMP thread(s) per MPI task
Reading data file ...
  orthogonal box = (0 0 0) to (8.7 15.0688 14.207)
  1 by 1 by 1 MPI processor grid
  reading atoms ...
  108 atoms
  reading velocities ...
  108 velocities
dynamic group Ni defined
dynamic group Co defined
dynamic group Ti defined
dynamic group Fe defined
Neighbor list info ...
  update every 1 steps, delay 10 steps, check yes
  max neighbors/atom: 2000, page size: 100000
  master list distance cutoff = 8.56034
  ghost atom cutoff = 8.56034
  binsize = 4.28017, bins = 3 4 4
  1 neighbor lists, perpetual/occasional/extra = 1 0 0
  (1) pair eam/alloy, perpetual
      attributes: half, newton on
      pair build: half/bin/atomonly/newton
      stencil: half/bin/3d/newton
      bin: standard
Setting up Verlet run ...
  Unit style    : metal
  Current step  : 0
  Time step     : 0.001
Per MPI rank memory allocation (min/avg/max) = 2.994 | 2.994 | 2.994 Mbytes
Step Temp E_pair E_mol TotEng Press Volume 
       0          800   -525.16872            0   -514.10405    45833.722    1862.5277 
    5000    383.35473    -520.3388            0   -515.03668   -9753.3977    1981.6108 
Loop time of 1.24171 on 1 procs for 5000 steps with 108 atoms

Performance: 347.907 ns/day, 0.069 hours/ns, 4026.701 timesteps/s
100.0% CPU use with 1 MPI tasks x 1 OpenMP threads

MPI task timing breakdown:
Section |  min time  |  avg time  |  max time  |%varavg| %total
---------------------------------------------------------------
Pair    | 1.0632     | 1.0632     | 1.0632     |   0.0 | 85.62
Neigh   | 0          | 0          | 0          |   0.0 |  0.00
Comm    | 0.030801   | 0.030801   | 0.030801   |   0.0 |  2.48
Output  | 2.0742e-05 | 2.0742e-05 | 2.0742e-05 |   0.0 |  0.00
Modify  | 0.12726    | 0.12726    | 0.12726    |   0.0 | 10.25
Other   |            | 0.02043    |            |       |  1.64

Nlocal:    108 ave 108 max 108 min
Histogram: 1 0 0 0 0 0 0 0 0 0
Nghost:    1467 ave 1467 max 1467 min
Histogram: 1 0 0 0 0 0 0 0 0 0
Neighs:    7884 ave 7884 max 7884 min
Histogram: 1 0 0 0 0 0 0 0 0 0

Total # of neighbors = 7884
Ave neighs/atom = 73
Neighbor list builds = 0
Dangerous builds = 0
WARNING: Using 'neigh_modify every 1 delay 0 check yes' setting during minimization (../min.cpp:168)
Setting up Verlet run ...
  Unit style    : metal
  Current step  : 5000
  Time step     : 0.001
Per MPI rank memory allocation (min/avg/max) = 5.123 | 5.123 | 5.123 Mbytes
Step Temp E_pair Volume TotEng Press Density Lx Ly Lz v_cNi v_cCo v_cFe v_cTi 
    5000    383.35473    -520.3388    1981.6108   -515.03668   -9753.3977    4.3331986    8.9412967    15.405626    14.385948            0            0            0          108 
    5010    369.29274   -520.14571    1981.3761   -515.03808    -9244.039    4.3337118    8.9409525    15.404862    14.385512            0            0            0          108 
    5020       354.61   -519.94633    1980.6921   -515.04178   -8462.9363    4.3352085    8.9399528    15.402612    14.384254            0            0            0          108 
    5030    352.90096   -519.92827    1979.5953   -515.04736   -7833.1592    4.3376104    8.9383318    15.399003    14.382267            0            0            0          108 
    5040    367.43321   -520.13628    1978.1165   -515.05437   -7487.5036    4.3408532    8.9360799    15.394203    14.379627            0            0            0          108 
    5050     386.6485    -520.4106    1976.2744   -515.06293   -7137.7485    4.3448992    8.9331482    15.388378     14.37639            0            0            0          108 
    5060    394.44253   -520.52782    1974.0894   -515.07235   -6335.8855    4.3497084    8.9294934     15.38168    14.372629            0            0            0          108 
    5070    386.32607   -520.42476    1971.6026   -515.08154   -4925.9717    4.3551947    8.9251313    15.374262    14.368469            0            0            0          108 
    5080    374.41016   -520.26703    1968.8825   -515.08862   -3220.1401    4.3612117    8.9201573      15.3663    14.364085            0            0            0          108 
    5090    374.06076   -520.26725    1966.0104   -515.09368   -1698.7871    4.3675828    8.9147125    15.357988    14.359659            0            0            0          108 
    5100    388.11341    -520.4643    1963.0595   -515.09637   -539.11793    4.3741482    8.9089234    15.349527    14.355332            0            0            0          108 
Setting up Verlet run ...
  Unit style    : metal
  Current step  : 5100
  Time step     : 0.001
Per MPI rank memory allocation (min/avg/max) = 5.123 | 5.123 | 5.123 Mbytes
Step Temp E_pair Volume TotEng Press Density Lx Ly Lz v_cNi v_cCo v_cFe v_cTi 
    5100    388.11341    -520.4643    1963.0595   -515.09637   -539.11793    4.3741482    8.9089234    15.349527    14.355332            0            0            0          108 
    5110    408.65696   -520.74904    1960.0863   -515.09698    388.53694    4.3807833    8.9028669    15.341119    14.351202            0            0            0          108 
    5120    427.65478   -521.01084    1957.1362   -515.09602    1323.5594    4.3873865    8.8965789    15.332989    14.347334            0            0            0          108 
    5130    435.27885   -521.11441    1954.2552   -515.09414    2572.7038    4.3938546    8.8900857    15.325377    14.343798            0            0            0          108 
    5140    419.83587   -520.89618     1951.504    -515.0895    4487.0134     4.400049    8.8834505    15.318535    14.340706            0            0            0          108 
    5150    383.71941   -520.38909    1948.9726   -515.08193    6930.4467    4.4057639    8.8768188    15.312715    14.338251            0            0            0          108 
    5160     349.0415   -519.89949    1946.7727   -515.07195    9186.3017    4.4107425    8.8704145    15.308143    14.336687            0            0            0          108 
    5170    338.09275   -519.73804     1945.006   -515.06194    10515.631    4.4147489    8.8644781    15.304976    14.336235            0            0            0          108 
    5180     355.4061   -519.96865    1943.7324   -515.05308    10713.869    4.4176417    8.8591954     15.30326    14.336998            0            0            0          108 
    5190    389.07722   -520.42835    1942.9609   -515.04708    10114.294    4.4193958    8.8546645    15.302939    14.338942            0            0            0          108 
    5200    419.23548   -520.84206    1942.6652   -515.04369    9337.1503    4.4200684    8.8509099    15.303879     14.34196            0            0            0          108 
Setting up Verlet run ...
  Unit style    : metal
  Current step  : 5200
  Time step     : 0.001
Per MPI rank memory allocation (min/avg/max) = 5.123 | 5.123 | 5.123 Mbytes
Step Temp E_pair Volume TotEng Press Density Lx Ly Lz v_cNi v_cCo v_cFe v_cTi 
    5200    419.23548   -520.84206    1942.6652   -515.04369    9337.1503    4.4200684    8.8509099    15.303879     14.34196            0            0            0          108 
    5210    428.69059   -520.97147    1942.8111   -515.04232    8919.7054    4.4197365    8.8479325    15.305921     14.34595            0            0            0          108 
    5220     415.2202   -520.78582    1943.3799   -515.04297    8930.9353    4.4184429    8.8457646    15.308922    14.350853            0            0            0          108 
    5230    393.41552   -520.48643    1944.3716   -515.04517    8966.8294    4.4161893    8.8444842    15.312768    14.356649            0            0            0          108 
    5240    379.95117     -520.305     1945.787   -515.04996    8545.3565     4.412977    8.8441681    15.317353    14.363312            0            0            0          108 
    5250    378.98139   -520.29798    1947.6069   -515.05635    7549.8417    4.4088533    8.8448327    15.322558    14.370783            0            0            0          108 
    5260    385.28862   -520.39193    1949.7867   -515.06307     6171.001    4.4039243    8.8464186    15.328255    14.378941            0            0            0          108 
    5270    392.86115   -520.50253    1952.2639   -515.06893    4655.8947    4.3983363    8.8488146    15.334342    14.387598            0            0            0          108 
    5280      396.671    -520.5595    1954.9688   -515.07321    3196.4049    4.3922507    8.8518819    15.340764     14.39651            0            0            0          108 
    5290    393.29768   -520.51498    1957.8337   -515.07534    1888.8106    4.3858235    8.8554646    15.347519    14.405431            0            0            0          108 
    5300    385.12047   -520.40207    1960.7967   -515.07553    630.77558    4.3791959    8.8593958    15.354631    14.414152            0            0            0          108 
Setting up Verlet run ...
  Unit style    : metal
  Current step  : 5300
  Time step     : 0.001
Per MPI rank memory allocation (min/avg/max) = 5.123 | 5.123 | 5.123 Mbytes
Step Temp E_pair Volume TotEng Press Density Lx Ly Lz v_cNi v_cCo v_cFe v_cTi 
    5300    385.12047   -520.40207    1960.7967   -515.07553    630.77558    4.3791959    8.8593958    15.354631    14.414152            0            0            0          108 
    5310    381.43307   -520.34936     1963.797   -515.07382   -830.37196    4.3725054    8.8635033    15.362086    14.422515            0            0            0          108 
    5320    389.68655   -520.45925    1966.7637   -515.06956   -2641.3713      4.36591    8.8676099    15.369788    14.430379            0            0            0          108 
    5330    404.40973   -520.65566    1969.6096   -515.06233     -4578.76    4.3596015    8.8715329    15.377545    14.437582            0            0            0          108 
    5340    409.29091   -520.71309    1972.2427   -515.05225   -6112.3879    4.3537812    8.8751058    15.385133    14.443936            0            0            0          108 
    5350    395.12403   -520.50667    1974.5888   -515.04178   -6924.7573    4.3486083    8.8782163    15.392366    14.449258            0            0            0          108 
    5360     371.6322    -520.1723    1976.6061   -515.03232   -7249.1315    4.3441701    8.8808216    15.399139    14.453418            0            0            0          108 
    5370    356.71884    -519.9579     1978.275   -515.02418   -7608.7691    4.3405053    8.8829165    15.405402     14.45633            0            0            0          108 
    5380    356.31886   -519.94602    1979.5753   -515.01784   -8247.2068    4.3376543    8.8844847    15.411102    14.457929            0            0            0          108 
    5390     361.7932   -520.01653    1980.4754   -515.01263   -8920.5096    4.3356828    8.8854763    15.416136    14.458166            0            0            0          108 
    5400    366.27907   -520.07514    1980.9426   -515.00919   -9359.6704    4.3346602    8.8858183    15.420376    14.457044            0            0            0          108 
Setting up Verlet run ...
  Unit style    : metal
  Current step  : 5400
  Time step     : 0.001
Per MPI rank memory allocation (min/avg/max) = 5.123 | 5.123 | 5.123 Mbytes
Step Temp E_pair Volume TotEng Press Density Lx Ly Lz v_cNi v_cCo v_cFe v_cTi 
    5400    366.27907   -519.75762    1980.9426   -514.69167    -12749.67    4.3437243    8.8858183    15.420376    14.457044            1            0            0          107 
    5410    374.95613   -519.87735    1980.8706   -514.69139   -13027.256    4.3438822    8.8853058    15.423527    14.454399            1            0            0          107 
    5420    384.01632   -520.00776    1980.1641   -514.69649   -12914.564    4.3454322    8.8837479    15.425339    14.450079            1            0            0          107 
    5430      392.987    -520.1414    1978.8288   -514.70606   -12407.349    4.3483644    8.8811352    15.425808    14.444144            1            0            0          107 
    5440    397.65212   -520.21959    1976.8907   -514.71973   -11474.378    4.3526273    8.8775321    15.424965    14.436644            1            0            0          107 
    5450     398.0099   -520.23974    1974.3968   -514.73493   -10171.818    4.3581254    8.8730711    15.422847    14.427661            1            0            0          107 
    5460    401.03329   -520.29737    1971.4113   -514.75074   -8716.9854    4.3647252    8.8679282     15.41948    14.417347            1            0            0          107 
    5470     409.0438   -520.42299    1968.0068   -514.76558   -7187.1826    4.3722759    8.8622938    15.414875    14.405901            1            0            0          107 
    5480    412.28362   -520.48015    1964.2606   -514.77792   -5329.8378    4.3806147    8.8563548    15.409063    14.393548            1            0            0          107 
    5490     401.0569   -520.33227    1960.2655   -514.78532   -2905.1785    4.3895424    8.8502944    15.402151     14.38056            1            0            0          107 
    5500    379.22615   -520.03115    1956.1392   -514.78613   -93.778837    4.3988018     8.844297    15.394366    14.367282            1            0            0          107 
Setting up Verlet run ...
  Unit style    : metal
  Current step  : 5500
  Time step     : 0.001
Per MPI rank memory allocation (min/avg/max) = 5.123 | 5.123 | 5.123 Mbytes
Step Temp E_pair Volume TotEng Press Density Lx Ly Lz v_cNi v_cCo v_cFe v_cTi 
    5500    379.22615   -520.03115    1956.1392   -514.78613   -93.778837    4.3988018     8.844297    15.394366    14.367282            1            0            0          107 
    5510    361.61528   -519.78181    1952.0147   -514.78037    2597.6327    4.4080962    8.8385465    15.386033    14.354087            1            0            0          107 
    5520    359.02171    -519.7343    1948.0184   -514.76873    4806.7904    4.4171393    8.8332183    15.377504    14.341291            1            0            0          107 
    5530    368.41306   -519.84902    1944.2538   -514.75356    6549.3096    4.4256921    8.8284689    15.369103    14.329104            1            0            0          107 
    5540    380.89855   -520.00434    1940.8022   -514.73619    8028.3551    4.4335628    8.8244281    15.361101    14.317671            1            0            0          107 
    5550    392.87979   -520.15142    1937.7316   -514.71756    9358.8435    4.4405886    8.8211943    15.353717    14.307136            1            0            0          107 
    5560    403.60091   -520.28129    1935.1021   -514.69915     10563.71    4.4466226    8.8188344    15.347121    14.297686            1            0            0          107 
    5570    410.98866   -520.36653    1932.9678   -514.68222    11626.695    4.4515322    8.8173874    15.341454    14.289538            1            0            0          107 
    5580    415.64321   -520.41631    1931.3761   -514.66761    12442.344     4.455201    8.8168691    15.336852    14.282895            1            0            0          107 
    5590    420.12325   -520.46778    1930.3625   -514.65713    12870.519    4.4575402    8.8172703    15.333449    14.277918            1            0            0          107 
    5600    423.82269   -520.51304    1929.9462   -514.65121    12921.472    4.4585018    8.8185498    15.331365    14.274707            1            0            0          107 
Setting up Verlet run ...
  Unit style    : metal
  Current step  : 5600
  Time step     : 0.001
Per MPI rank memory allocation (min/avg/max) = 5.123 | 5.123 | 5.123 Mbytes
Step Temp E_pair Volume TotEng Press Density Lx Ly Lz v_cNi v_cCo v_cFe v_cTi 
    5600    423.82269   -520.51304    1929.9462   -514.65121    12921.472    4.4585018    8.8185498    15.331365    14.274707            1            0            0          107 
    5610    424.12465   -520.51516    1930.1301   -514.64916    12761.588    4.4580769    8.8206405    15.330694    14.273308            1            0            0          107 
    5620    417.35671   -520.42438    1930.9082   -514.65199     12554.78    4.4562804     8.823477    15.331489    14.273732            1            0            0          107 
    5630    399.60785   -520.18601     1932.273    -514.6591    12400.711     4.453133    8.8270224    15.333746    14.275982            1            0            0          107 
    5640    375.32677   -519.86241    1934.2187   -514.67133    12077.635    4.4486534    8.8312693    15.337417    14.280066            1            0            0          107 
    5650    361.20177   -519.68294    1936.7311   -514.68721    11089.242    4.4428824    8.8362045    15.342415    14.285973            1            0            0          107 
    5660    371.65195   -519.84467    1939.7655   -514.70442    9084.6074    4.4359324    8.8417584      15.3486    14.293607            1            0            0          107 
    5670    399.24992   -520.24115    1943.2322   -514.71919    6365.7555    4.4280186    8.8477758    15.355755    14.302746            1            0            0          107 
    5680    419.78732   -520.53453    1947.0096   -514.72852    3709.1006    4.4194279    8.8540399    15.363617    14.313082            1            0            0          107 
    5690    416.06101   -520.48709    1950.9767   -514.73261    1668.4537    4.4104415    8.8603347    15.371936    14.324299            1            0            0          107 
    5700     391.9985   -520.15392    1955.0381   -514.73225    183.39471    4.4012793    8.8664924     15.38052    14.336144            1            0            0          107 
Setting up Verlet run ...
  Unit style    : metal
  Current step  : 5700
  Time step     : 0.001
Per MPI rank memory allocation (min/avg/max) = 5.123 | 5.123 | 5.123 Mbytes
Step Temp E_pair Volume TotEng Press Density Lx Ly Lz v_cNi v_cCo v_cFe v_cTi 
    5700     391.9985   -520.15392    1955.0381   -514.73225    183.39471    4.4012793    8.8664924     15.38052    14.336144            1            0            0          107 
    5710     369.7979   -519.84321    1959.1209    -514.7286   -1350.6787     4.392107    8.8723928    15.389213    14.348419            1            0            0          107 
    5720    369.84988   -519.83649    1963.1488   -514.72115   -3467.0968    4.3830955    8.8779275    15.397818    14.360926            1            0            0          107 
    5730    391.14165   -520.11799    1967.0191   -514.70818    -6078.811    4.3744714     8.882966    15.406026    14.373414            1            0            0          107 
    5740    415.36527   -520.43496    1970.6061   -514.69011   -8597.1172    4.3665086    8.8873594    15.413453    14.385572            1            0            0          107 
    5750    423.75456   -520.53031    1973.7882   -514.66943   -10415.551     4.359469      8.89098     15.41973    14.397071            1            0            0          107 
    5760    409.41507   -520.31174    1976.4754   -514.64919   -11297.028     4.353542    8.8937653     15.42458    14.407625            1            0            0          107 
    5770    380.40131   -519.89297    1978.6212    -514.6317   -11481.452    4.3488207    8.8957298    15.427838    14.417036            1            0            0          107 
    5780    353.85528   -519.51193    1980.2119   -514.61782   -11500.189    4.3453272    8.8969345     15.42943    14.425185            1            0            0          107 
    5790    345.12318    -519.3812    1981.2425   -514.60785   -11803.439    4.3430669    8.8974415    15.429319    14.431974            1            0            0          107 
    5800    355.21399   -519.51426    1981.6965   -514.60136   -12375.998    4.3420719    8.8972813    15.427477    14.437265            1            0            0          107 
Setting up Verlet run ...
  Unit style    : metal
  Current step  : 5800
  Time step     : 0.001
Per MPI rank memory allocation (min/avg/max) = 5.123 | 5.123 | 5.123 Mbytes
Step Temp E_pair Volume TotEng Press Density Lx Ly Lz v_cNi v_cCo v_cFe v_cTi 
    5800    355.21399   -519.51426    1981.6965   -514.60136   -12375.998    4.3420719    8.8972813    15.427477    14.437265            1            0            0          107 
    5810    370.63813   -519.72542    1981.5467   -514.59919   -12781.629    4.3424001     8.896446    15.423883    14.440893            1            0            0          107 
    5820     378.9485   -519.84271     1980.775   -514.60153   -12620.508     4.344092    8.8949032    15.418578     14.44274            1            0            0          107 
    5830    379.40682   -519.85506    1979.3898   -514.60754   -11903.099    4.3471319    8.8926222    15.411685    14.442799            1            0            0          107 
    5840    380.93565   -519.88613    1977.4261   -514.61747   -10963.532    4.3514488       8.8896    15.403377    14.441161            1            0            0          107 
    5850    390.88421   -520.03613    1974.9303   -514.62988   -10033.796    4.3569479    8.8858724    15.393804    14.437957            1            0            0          107 
    5860    405.01811   -520.24493    1971.9503    -514.6432   -8996.2649    4.3635321    8.8815132    15.383083    14.433299            1            0            0          107 
    5870    414.75421   -520.39308    1968.5401   -514.65669   -7598.7034    4.3710914    8.8766243    15.371356    14.427272            1            0            0          107 
    5880    416.43241   -520.42732    1964.7704   -514.66772   -5702.3784    4.3794779    8.8713245    15.358865    14.419966            1            0            0          107 
    5890    407.27208   -520.30726    1960.7354   -514.67435   -3306.4415    4.3884905    8.8657431    15.345963    14.411517            1            0            0          107 
    5900    392.57609   -520.10452    1956.5511   -514.67486   -676.23198    4.3978757    8.8600174    15.333071    14.402155            1            0            0          107 
Setting up Verlet run ...
  Unit style    : metal
  Current step  : 5900
  Time step     : 0.001
Per MPI rank memory allocation (min/avg/max) = 5.123 | 5.123 | 5.123 Mbytes
Step Temp E_pair Volume TotEng Press Density Lx Ly Lz v_cNi v_cCo v_cFe v_cTi 
    5900    392.57609   -520.10452    1956.5511   -514.67486   -676.23198    4.3978757    8.8600174    15.333071    14.402155            1            0            0          107 
    5910    388.52866   -520.04294    1952.3422   -514.66926    1668.5346    4.4073568    8.8542804    15.320591    14.392199            1            0            0          107 
    5920    401.77993   -520.21567     1948.219   -514.65871    3496.5474    4.4166844     8.848648    15.308821    14.381995            1            0            0          107 
    5930    419.19311   -520.44267    1944.2689   -514.64488     5138.513    4.4256577      8.84323    15.297949    14.371834            1            0            0          107 
    5940    421.06577   -520.45089    1940.5704    -514.6272    7155.9976    4.4340924    8.8381656    15.288115    14.361947            1            0            0          107 
    5950    402.16258   -520.16819    1937.2172   -514.60595     9633.539    4.4417676    8.8336528    15.279482     14.35256            1            0            0          107 
    5960    379.11131   -519.82614    1934.3207   -514.58272    11996.091    4.4484189    8.8299279    15.272246    14.343938            1            0            0          107 
    5970    372.71635   -519.71591    1931.9851   -514.56093    13557.124    4.4537966    8.8271942    15.266592    14.336363            1            0            0          107 
    5980    385.76779   -519.87867    1930.2794   -514.54317    14172.793    4.4577321    8.8255591    15.262646    14.330064            1            0            0          107 
    5990    403.10674   -520.10556    1929.2317   -514.53025    14276.482     4.460153    8.8250351    15.260483    14.325166            1            0            0          107 
    6000    410.46363   -520.19994     1928.847   -514.52289    14281.035    4.4610425    8.8255865    15.260171    14.321708            1            0            0          107 
Setting up Verlet run ...
  Unit style    : metal
  Current step  : 6000
  Time step     : 0.001
Per MPI rank memory allocation (min/avg/max) = 5.123 | 5.123 | 5.123 Mbytes
Step Temp E_pair Volume TotEng Press Density Lx Ly Lz v_cNi v_cCo v_cFe v_cTi 
    6000    410.46363   -520.19994     1928.847   -514.52289    14281.035    4.4610425    8.8255865    15.260171    14.321708            1            0            0          107 
    6010    410.66017   -520.20079    1929.1251   -514.52102    14101.813    4.4603995    8.8271606    15.261777    14.319711            1            0            0          107 
    6020    415.86851   -520.27651    1930.0567    -514.5247    13404.813    4.4582465    8.8296844    15.265332    14.319196            1            0            0          107 
    6030    426.10423    -520.4263     1931.611   -514.53292    12209.379    4.4546592    8.8330589    15.270763    14.320158            1            0            0          107 
    6040      428.134   -520.46492    1933.7365   -514.54347    10952.329    4.4497628    8.8371808    15.277893    14.322541            1            0            0          107 
    6050    413.10397   -520.26948    1936.3787    -514.5559    9942.3327    4.4436909    8.8419756    15.286498    14.326265            1            0            0          107 
    6060    387.95921   -519.93505    1939.4931   -514.56925     8999.155    4.4365553    8.8474062    15.296371    14.331244            1            0            0          107 
    6070    371.99444   -519.72819    1943.0361   -514.58319    7556.9958    4.4284656    8.8534426    15.307317    14.337375            1            0            0          107 
    6080    378.71884   -519.83233     1946.941   -514.59433    5272.6283    4.4195836    8.8600108     15.31911    14.344487            1            0            0          107 
    6090    400.33331   -520.13638    1951.1032   -514.59943     2423.581    4.4101555     8.866963    15.331459    14.352312            1            0            0          107 
    6100    416.33717   -520.35531    1955.3917   -514.59702   -315.47963    4.4004833     8.874095     15.34403    14.360523            1            0            0          107 
Setting up Verlet run ...
  Unit style    : metal
  Current step  : 6100
  Time step     : 0.001
Per MPI rank memory allocation (min/avg/max) = 5.123 | 5.123 | 5.123 Mbytes
Step Temp E_pair Volume TotEng Press Density Lx Ly Lz v_cNi v_cCo v_cFe v_cTi 
    6100    416.33717   -520.35531    1955.3917   -514.59702   -315.47963    4.4004833     8.874095     15.34403    14.360523            1            0            0          107 
    6110    413.67451   -520.30945    1959.6786   -514.58798   -2465.3455     4.390857    8.8811944    15.356506    14.368819            1            0            0          107 
    6120    396.20471   -520.05392    1963.8604   -514.57407   -4085.6355    4.3815072    8.8880883    15.368639    14.376953            1            0            0          107 
    6130    381.21249   -519.82908    1967.8558   -514.55659   -5681.1003    4.3726113    8.8946581    15.380248    14.384696            1            0            0          107 
    6140    383.98862   -519.84678    1971.5838    -514.5359   -7663.6056    4.3643434    8.9008078    15.391158     14.39178            1            0            0          107 
    6150    402.55246   -520.08065    1974.9461   -514.51302   -9888.5072    4.3569131    8.9064153     15.40115      14.3979            1            0            0          107 
    6160    418.83984   -520.28129    1977.8347   -514.48838    -11723.53      4.35055     8.911321     15.40996    14.402782            1            0            0          107 
    6170    415.04139   -520.20562    1980.1597   -514.46525    -12636.44    4.3454418    8.9153655    15.417353    14.406259            1            0            0          107 
    6180    391.19695   -519.85637    1981.8742   -514.44579   -12684.564    4.3416824     8.918436    15.423196    14.408309            1            0            0          107 
    6190     368.3348   -519.52608    1982.9714    -514.4317   -12535.545    4.3392802    8.9204774    15.427475    14.408989            1            0            0          107 
    6200    367.40548   -519.50443    1983.4545    -514.4229   -12766.871    4.3382233    8.9214645     15.43022    14.408341            1            0            0          107 
Setting up Verlet run ...
  Unit style    : metal
  Current step  : 6200
  Time step     : 0.001
Per MPI rank memory allocation (min/avg/max) = 5.123 | 5.123 | 5.123 Mbytes
Step Temp E_pair Volume TotEng Press Density Lx Ly Lz v_cNi v_cCo v_cFe v_cTi 
    6200    367.40548   -519.50443    1983.4545    -514.4229   -12766.871    4.3382233    8.9214645     15.43022    14.408341            1            0            0          107 
    6210    384.08325   -519.73065    1983.3121   -514.41846   -13216.923    4.3385349    8.9213711    15.431415    14.406341            1            0            0          107 
    6220    396.56742   -519.90429    1982.5248   -514.41943   -13250.924    4.3402578    8.9201755    15.430997    14.402943            1            0            0          107 
    6230    393.72977   -519.87061    1981.0939   -514.42499   -12476.131    4.3433927     8.917891    15.428935    14.398158            1            0            0          107 
    6240    384.75344   -519.75539    1979.0581   -514.43393   -11140.743    4.3478606    8.9145868    15.425288    14.392096            1            0            0          107 
    6250    384.93679   -519.76873    1976.4825   -514.44473   -9761.8105    4.3535263    8.9103701    15.420188    14.384924            1            0            0          107 
    6260    397.20676   -519.94966     1973.436   -514.45596   -8533.5958    4.3602472    8.9053482    15.413791    14.376814            1            0            0          107 
    6270    409.55191   -520.13128    1969.9818   -514.46683   -7175.6913    4.3678924    8.8996127    15.406252    14.367927            1            0            0          107 
    6280    409.17919    -520.1344    1966.1905   -514.47511   -5280.1596    4.3763149    8.8932597    15.397742    14.358451            1            0            0          107 
    6290    394.23704   -519.93144    1962.1565   -514.47881   -2755.4834     4.385312    8.8864209    15.388487    14.348643            1            0            0          107 
    6300    374.68667   -519.65853    1958.0019    -514.4763    48.354218    4.3946172     8.879269    15.378784    14.338836            1            0            0          107 
Setting up Verlet run ...
  Unit style    : metal
  Current step  : 6300
  Time step     : 0.001
Per MPI rank memory allocation (min/avg/max) = 5.123 | 5.123 | 5.123 Mbytes
Step Temp E_pair Volume TotEng Press Density Lx Ly Lz v_cNi v_cCo v_cFe v_cTi 
    6300    374.68667   -519.65853    1958.0019    -514.4763    48.354218    4.3946172     8.879269    15.378784    14.338836            1            0            0          107 
    6310    366.83097   -519.54028     1953.859    -514.4667    2533.9645    4.4039352    8.8719923    15.368955    14.329391            1            0            0          107 
    6320    380.20987   -519.71099    1949.8443   -514.45237     4309.063    4.4130029    8.8647596    15.359288    14.320622            1            0            0          107 
    6330    403.73398    -520.0183    1946.0418   -514.43432    5667.7453    4.4216257    8.8577044    15.349994     14.31274            1            0            0          107 
    6340    415.01871   -520.15339     1942.517   -514.41333    7247.7752     4.429649    8.8509499    15.341241    14.305876            1            0            0          107 
    6350    409.27746   -520.05072    1939.3429   -514.39007    9159.7992     4.436899    8.8446433    15.333216    14.300165            1            0            0          107 
    6360    403.83668   -519.95132    1936.6045   -514.36592    10867.503    4.4431729    8.8389475    15.326121    14.295789            1            0            0          107 
    6370    412.64054   -520.05007    1934.3767   -514.34291    11893.845    4.4482899    8.8339959    15.320103     14.29296            1            0            0          107 
    6380    430.60531   -520.27906    1932.7049   -514.32342    12287.583    4.4521378     8.829872    15.315214    14.291838            1            0            0          107 
    6390    443.60845   -520.44309    1931.6067   -514.30761    12438.687    4.4546689    8.8266309    15.311449    14.292476            1            0            0          107 
    6400    444.70166   -520.44547    1931.0891   -514.29488    12634.594    4.4558631    8.8243195    15.308845    14.294819            1            0            0          107 
Setting up Verlet run ...
  Unit style    : metal
  Current step  : 6400
  Time step     : 0.001
Per MPI rank memory allocation (min/avg/max) = 5.123 | 5.123 | 5.123 Mbytes
Step Temp E_pair Volume TotEng Press Density Lx Ly Lz v_cNi v_cCo v_cFe v_cTi 
    6400    444.70166   -520.44547    1931.0891   -514.29488    12634.594    4.4558631    8.8243195    15.308845    14.294819            1            0            0          107 
    6410    436.64345   -520.32635    1931.1603   -514.28721    12858.406    4.4556989    8.8229676    15.307531    14.298764            1            0            0          107 
    6420    424.15814   -520.15001      1931.83   -514.28355    12918.036    4.4541542    8.8225751    15.307696    14.304204            1            0            0          107 
    6430    414.12795   -520.01264    1933.1003   -514.28491    12492.062    4.4512271    8.8231215    15.309503    14.311035            1            0            0          107 
    6440    413.69979   -520.01133    1934.9523   -514.28951    11405.678    4.4469668    8.8245724    15.312993    14.319126            1            0            0          107 
    6450    418.31149   -520.08161    1937.3381   -514.29601    9899.5291    4.4414905    8.8268687    15.318061     14.32831            1            0            0          107 
    6460     414.1885   -520.03177    1940.1918   -514.30319    8464.6472    4.4349577    8.8299126    15.324518    14.338425            1            0            0          107 
    6470    397.04884   -519.80177    1943.4498   -514.31025    7293.8473     4.427523    8.8335755    15.332194    14.349359            1            0            0          107 
    6480    379.58614   -519.56633    1947.0578   -514.31634    5992.8968    4.4193185     8.837727    15.340971    14.361024            1            0            0          107 
    6490    380.75568   -519.58602    1950.9539   -514.31985    3935.9701     4.410493    8.8422475    15.350719    14.373271            1            0            0          107 
    6500    406.05017   -519.93301    1955.0409     -514.317    954.31185    4.4012728    8.8470086    15.361199    14.385809            1            0            0          107 
Setting up Verlet run ...
  Unit style    : metal
  Current step  : 6500
  Time step     : 0.001
Per MPI rank memory allocation (min/avg/max) = 5.123 | 5.123 | 5.123 Mbytes
Step Temp E_pair Volume TotEng Press Density Lx Ly Lz v_cNi v_cCo v_cFe v_cTi 
    6500    406.05017   -519.93301    1955.0409     -514.317    954.31185    4.4012728    8.8470086    15.361199    14.385809            1            0            0          107 
    6510    438.74901   -520.37331      1959.18   -514.30504   -2347.9596    4.3919745    8.8518504    15.372031    14.398228            1            0            0          107 
    6520    453.03895   -520.55041    1963.2171    -514.2845   -5000.1144    4.3829429    8.8565905    15.382764    14.410113            1            0            0          107 
    6530    436.15062   -520.29184    1967.0262   -514.25951   -6459.5932    4.3744554    8.8610641    15.393018     14.42117            1            0            0          107 
    6540    395.85531   -519.70986    1970.5345   -514.23485   -6948.2035    4.3666673    8.8651532    15.402557    14.431284            1            0            0          107 
    6550    354.40866   -519.11374    1973.7131   -514.21197   -7227.4856    4.3596349     8.868778    15.411282    14.440474            1            0            0          107 
    6560     337.7533   -518.86159    1976.5427   -514.19018   -8128.2146    4.3533938    8.8718598    15.419151    14.448776            1            0            0          107 
    6570     355.3064   -519.08232    1978.9757   -514.16814   -9906.4717    4.3480415    8.8742849    15.426085    14.456108            1            0            0          107 
    6580    388.79901   -519.52276    1980.9261   -514.14535   -11934.187    4.3437606    8.8759006    15.431938    14.462233            1            0            0          107 
    6590    408.51638   -519.77454    1982.2971   -514.12442   -13242.397    4.3407562    8.8765601    15.436545    14.466849            1            0            0          107 
    6600      400.484   -519.64671    1983.0261   -514.10768   -13362.172    4.3391604    8.8761869    15.439813    14.469715            1            0            0          107 
Setting up Verlet run ...
  Unit style    : metal
  Current step  : 6600
  Time step     : 0.001
Per MPI rank memory allocation (min/avg/max) = 5.123 | 5.123 | 5.123 Mbytes
Step Temp E_pair Volume TotEng Press Density Lx Ly Lz v_cNi v_cCo v_cFe v_cTi 
    6600      400.484   -519.64671    1983.0261   -514.10768   -13362.172    4.3391604    8.8761869    15.439813    14.469715            1            0            0          107 
    6610    381.95555   -519.37904     1983.105   -514.09627   -12794.137    4.3389878    8.8748016    15.441748    14.470736            1            0            0          107 
    6620    384.69364   -519.41046    1982.5575   -514.08983   -12501.237    4.3401861    8.8724826    15.442386    14.469923            1            0            0          107 
    6630    415.70383   -519.83717    1981.3971   -514.08764   -12757.754    4.3427281    8.8692962      15.4417    14.467292            1            0            0          107 
    6640    447.79281   -520.28294    1979.6159    -514.0896   -12775.055    4.3466355    8.8652697    15.439597    14.462821            1            0            0          107 
    6650    449.85886   -520.31664      1977.22   -514.09472   -11606.635    4.3519025    8.8604344    15.436048    14.456523            1            0            0          107 
    6660    421.12325   -519.92564      1974.27   -514.10116   -9241.9555    4.3584052    8.8548907    15.431186    14.448542            1            0            0          107 
    6670    390.94029   -519.51293    1970.8805    -514.1059   -6574.4163    4.3659008    8.8488283    15.425282    14.439143            1            0            0          107 
    6680    382.53797   -519.39794      1967.18   -514.10712   -4379.3297    4.3741134    8.8424795    15.418628    14.428604            1            0            0          107 
    6690    393.24465   -519.54324    1963.2764   -514.10434   -2705.1354    4.3828106    8.8360539    15.411464    14.417143            1            0            0          107 
    6700    410.28481   -519.77185    1959.2532   -514.09727   -1176.8129    4.3918103     8.829711    15.403986    14.404924            1            0            0          107 
Setting up Verlet run ...
  Unit style    : metal
  Current step  : 6700
  Time step     : 0.001
Per MPI rank memory allocation (min/avg/max) = 5.123 | 5.123 | 5.123 Mbytes
Step Temp E_pair Volume TotEng Press Density Lx Ly Lz v_cNi v_cCo v_cFe v_cTi 
    6700    410.28481   -519.77185    1959.2532   -514.09727   -1176.8129    4.3918103     8.829711    15.403986    14.404924            1            0            0          107 
    6710    424.29426   -519.95423    1955.1862   -514.08589    534.96867    4.4009458    8.8235754    15.396384    14.392121            1            0            0          107 
    6720    427.90401   -519.98784    1951.1585   -514.06957     2656.184    4.4100305    8.8177649    15.388868    14.378957            1            0            0          107 
    6730    416.53424   -519.80884    1947.2711   -514.04782    5216.2285    4.4188345     8.812409    15.381698    14.365723            1            0            0          107 
    6740    397.45731   -519.51787    1943.6425    -514.0207    7855.6444    4.4270839    8.8076451    15.375199    14.352774            1            0            0          107 
    6750    392.51411   -519.41912    1940.3919   -513.99032    9837.4749    4.4345004    8.8035953    15.369725    14.340467            1            0            0          107 
    6760    417.32931   -519.73173    1937.6068   -513.95971    10686.297    4.4408744    8.8003287    15.365561    14.329082            1            0            0          107 
    6770    459.39459   -520.28443     1935.325   -513.93061    10751.264    4.4461103    8.7978457    15.362856    14.318767            1            0            0          107 
    6780    488.58612   -520.66068    1933.5504   -513.90313    10933.708    4.4501909    8.7961107    15.361633    14.309598            1            0            0          107 
    6790    483.81749   -520.56936    1932.2923   -513.87776    11872.823    4.4530886    8.7951166    15.361874    14.301679            1            0            0          107 
    6800     447.9002   -520.05078    1931.5923   -513.85594    13424.965    4.4547022    8.7949292    15.363591    14.295205            1            0            0          107 
Setting up Verlet run ...
  Unit style    : metal
  Current step  : 6800
  Time step     : 0.001
Per MPI rank memory allocation (min/avg/max) = 5.123 | 5.123 | 5.123 Mbytes
Step Temp E_pair Volume TotEng Press Density Lx Ly Lz v_cNi v_cCo v_cFe v_cTi 
    6800     447.9002   -520.05078    1931.5923   -513.85594    13424.965    4.4547022    8.7949292    15.363591    14.295205            1            0            0          107 
    6810    405.33268   -519.44579    1931.5183    -513.8397    14769.835    4.4548728     8.795675    15.366846    14.290417            1            0            0          107 
    6820    384.06214   -519.14253    1932.1285   -513.83063    15047.803    4.4534659    8.7974732    15.371694    14.287503            1            0            0          107 
    6830    390.79313   -519.23269    1933.4351   -513.82769      14101.3    4.4504565    8.8003639    15.378109    14.286506            1            0            0          107 
    6840    408.79315   -519.48278     1935.397   -513.82883    12479.549    4.4459449    8.8042902    15.385965    14.287327            1            0            0          107 
    6850    421.23803   -519.65741    1937.9433   -513.83134    10777.991    4.4401033     8.809137    15.395062    14.289803            1            0            0          107 
    6860    423.49655   -519.69087    1940.9977   -513.83355    9169.7571    4.4331163    8.8147768    15.405164    14.293789            1            0            0          107 
    6870    419.99028   -519.64374    1944.4866   -513.83493    7455.0877    4.4251621    8.8210878    15.416009    14.299171            1            0            0          107 
    6880    421.17795   -519.65918    1948.3303   -513.83393    5309.2754    4.4164321    8.8279453    15.427315    14.305815            1            0            0          107 
    6890    430.91811   -519.78777    1952.4293   -513.82781     2738.787    4.4071602    8.8352052    15.438774      14.3135            1            0            0          107 
    6900    437.68064   -519.86864    1956.6645   -513.81515    231.69596    4.3976208    8.8427082    15.450058    14.321911            1            0            0          107 
Setting up Verlet run ...
  Unit style    : metal
  Current step  : 6900
  Time step     : 0.001
Per MPI rank memory allocation (min/avg/max) = 5.123 | 5.123 | 5.123 Mbytes
Step Temp E_pair Volume TotEng Press Density Lx Ly Lz v_cNi v_cCo v_cFe v_cTi 
    6900    437.68064   -519.86864    1956.6645   -513.81515    231.69596    4.3976208    8.8427082    15.450058    14.321911            1            0            0          107 
    6910    430.47529   -519.75048    1960.9191   -513.79665   -1747.7415    4.3880794    8.8503014    15.460864    14.330715            1            0            0          107 
    6920     413.3817   -519.49196    1965.0976   -513.77455   -3253.1148    4.3787488     8.857854    15.470965    14.339638            1            0            0          107 
    6930    399.95836   -519.28133    1969.1246   -513.74957   -4722.5079    4.3697938    8.8652501    15.480206    14.348467            1            0            0          107 
    6940    403.32236   -519.30022    1972.9256   -513.72193   -6623.4582    4.3613751    8.8723656    15.488451    14.356987            1            0            0          107 
    6950    426.68415   -519.59141    1976.4058   -513.69001   -9028.7846    4.3536952     8.879041    15.495533    14.364931            1            0            0          107 
    6960    454.90771   -519.94626    1979.4481    -513.6545   -11404.394    4.3470038    8.8850837    15.501231    14.371974            1            0            0          107 
    6970    463.74781   -520.03251     1981.938   -513.61849   -12942.499    4.3415427    8.8903173    15.505314    14.377794            1            0            0          107 
    6980    441.68792   -519.69538    1983.8005   -513.58647    -13233.23    4.3374667    8.8946421    15.507622    14.382166            1            0            0          107 
    6990    401.23336   -519.11034    1985.0189   -513.56095   -12626.897    4.3348043    8.8980536    15.508125    14.385016            1            0            0          107 
    7000    371.25413   -518.67708    1985.6189   -513.54233   -11966.251    4.3334946    8.9006012    15.506892    14.386388            1            0            0          107 
Setting up Verlet run ...
  Unit style    : metal
  Current step  : 7000
  Time step     : 0.001
Per MPI rank memory allocation (min/avg/max) = 5.123 | 5.123 | 5.123 Mbytes
Step Temp E_pair Volume TotEng Press Density Lx Ly Lz v_cNi v_cCo v_cFe v_cTi 
    7000    371.25413   -518.67708    1985.6189   -513.54233   -11966.251    4.3334946    8.9006012    15.506892    14.386388            1            0            0          107 
    7010    372.77849   -518.68467    1985.6298   -513.52883    -11877.91    4.3334708    8.9023238    15.504003    14.386364            1            0            0          107 
    7020    399.49761   -519.04471    1985.0567   -513.51932   -12253.917    4.3347218    8.9032103    15.499461    14.384994            1            0            0          107 
    7030    428.37097   -519.43787    1983.8851   -513.51314   -12483.716    4.3372817    8.9032139    15.493213    14.382296            1            0            0          107 
    7040    444.54169   -519.65907    1982.1079   -513.51068   -12108.634    4.3411707    8.9022935    15.485218    14.378317            1            0            0          107 
    7050    447.89692   -519.70585    1979.7469   -513.51107   -11029.844    4.3463479    8.9004407    15.475505    14.373195            1            0            0          107 
    7060     442.2822   -519.63077     1976.858   -513.51363   -9347.2069    4.3526994    8.8976846    15.464189    14.367173            1            0            0          107 
    7070    431.52822   -519.48376    1973.5262   -513.51536   -7238.6328    4.3600478    8.8940921    15.451474     14.36056            1            0            0          107 
    7080    422.90562   -519.36402    1969.8559   -513.51488   -5032.3861    4.3681716    8.8897664    15.437641    14.353677            1            0            0          107 
    7090    422.95182   -519.36036    1965.9555   -513.51058   -2992.5759     4.376838    8.8848353    15.423004    14.346809            1            0            0          107 
    7100     429.9742   -519.44893    1961.9253   -513.50203   -1129.4127     4.385829    8.8794364    15.407845    14.340198            1            0            0          107 
Setting up Verlet run ...
  Unit style    : metal
  Current step  : 7100
  Time step     : 0.001
Per MPI rank memory allocation (min/avg/max) = 5.123 | 5.123 | 5.123 Mbytes
Step Temp E_pair Volume TotEng Press Density Lx Ly Lz v_cNi v_cCo v_cFe v_cTi 
    7100     429.9742   -519.44893    1961.9253   -513.50203   -1129.4127     4.385829    8.8794364    15.407845    14.340198            1            0            0          107 
    7110    437.32211   -519.53726    1957.8569   -513.48873    733.02336    4.3949425     8.873707    15.392411     14.33406            1            0            0          107 
    7120    441.25069   -519.57392    1953.8405   -513.47106    2712.6904    4.4039769    8.8677805    15.376949    14.328608            1            0            0          107 
    7130    441.09244    -519.5491    1949.9701   -513.44842     4814.171    4.4127182     8.861786    15.361755    14.324051            1            0            0          107 
    7140    437.16168   -519.46848    1946.3436   -513.42217    6924.7252    4.4209403    8.8558501    15.347187    14.320575            1            0            0          107 
    7150    432.60784   -519.37544    1943.0578   -513.39211    8869.4491    4.4284162    8.8501055    15.333617     14.31834            1            0            0          107 
    7160    433.74941   -519.36071    1940.2001    -513.3616    10384.529    4.4349387    8.8447024    15.321357    14.317463            1            0            0          107 
    7170    441.93829   -519.44375     1937.838   -513.33138    11412.285    4.4403447    8.8398081    15.310589    14.318012            1            0            0          107 
    7180    449.44004   -519.51948    1936.0168   -513.30335    12147.228    4.4445217    8.8355871    15.301377    14.320006            1            0            0          107 
    7190    448.89158   -519.48744    1934.7686    -513.2789     12818.82    4.4473889    8.8321774    15.293744    14.323444            1            0            0          107 
    7200    441.58386   -519.36612    1934.1222   -513.25864    13411.898    4.4488754    8.8296796    15.287738    14.328335            1            0            0          107 
Setting up Verlet run ...
  Unit style    : metal
  Current step  : 7200
  Time step     : 0.001
Per MPI rank memory allocation (min/avg/max) = 5.123 | 5.123 | 5.123 Mbytes
Step Temp E_pair Volume TotEng Press Density Lx Ly Lz v_cNi v_cCo v_cFe v_cTi 
    7200    441.58386   -519.36612    1934.1222   -513.25864    13411.898    4.4488754    8.8296796    15.287738    14.328335            1            0            0          107 
    7210    435.76462   -519.27094    1934.1019   -513.24395    13635.253    4.4489221    8.8281539    15.283432    14.334699            1            0            0          107 
    7220    437.70668   -519.28845    1934.7156    -513.2346    13218.977    4.4475109    8.8276144    15.280875    14.342522            1            0            0          107 
    7230    447.83927   -519.42322    1935.9431   -513.22923     12148.99    4.4446907    8.8280285    15.280062    14.351714            1            0            0          107 
    7240    464.94756   -519.65665    1937.7356   -513.22604    10615.339    4.4405793    8.8293268    15.280926    14.362077            1            0            0          107 
    7250    481.22745   -519.87903    1940.0233   -513.22326    8954.8364    4.4353428    8.8314226     15.28336    14.373332            1            0            0          107 
    7260    481.97618   -519.88609    1942.7317   -513.21996    7587.1282    4.4291596    8.8342443    15.287227     14.38516            1            0            0          107 
    7270    460.95108    -519.5918    1945.7986   -513.21646    6677.5823    4.4221784    8.8377527    15.292409     14.39727            1            0            0          107 
    7280     429.6608   -519.15649    1949.1816   -513.21392    5899.1321    4.4145033    8.8419173    15.298845    14.409443            1            0            0          107 
    7290    410.21708   -518.88516    1952.8421   -513.21151    4582.0955    4.4062286    8.8466749    15.306511    14.421514            1            0            0          107 
    7300    418.26108   -518.99152    1956.7163   -513.20662     2277.607    4.3975043    8.8519022    15.315321    14.433284            1            0            0          107 
Setting up Verlet run ...
  Unit style    : metal
  Current step  : 7300
  Time step     : 0.001
Per MPI rank memory allocation (min/avg/max) = 5.123 | 5.123 | 5.123 Mbytes
Step Temp E_pair Volume TotEng Press Density Lx Ly Lz v_cNi v_cCo v_cFe v_cTi 
    7300    418.26108   -518.99152    1956.7163   -513.20662     2277.607    4.3975043    8.8519022    15.315321    14.433284            1            0            0          107 
    7310    449.74519   -519.41601    1960.6957   -513.19565   -775.52089    4.3885793     8.857411    15.325059    14.444457            1            0            0          107 
    7320    481.33454   -519.83485    1964.6371    -513.1776   -3762.5113    4.3797751    8.8629693    15.335391    14.454672            1            0            0          107 
    7330    488.33852   -519.90825    1968.3998   -513.15412   -5885.9661    4.3714028    8.8683539    15.345942    14.463612            1            0            0          107 
    7340    467.10525   -519.58963    1971.8813   -513.12917   -7011.3816    4.3636849    8.8734053    15.356391    14.471091            1            0            0          107 
    7350    436.00109    -519.1351    1975.0237   -513.10484   -7657.6781    4.3567419    8.8780359     15.36652    14.477044            1            0            0          107 
    7360    418.63358   -518.87284    1977.7913   -513.08279   -8519.0676    4.3506453    8.8821906    15.376187    14.481439            1            0            0          107 
    7370    424.31045    -518.9305    1980.1395   -513.06193   -9845.5495    4.3454861    8.8857997    15.385261    14.484196            1            0            0          107 
    7380    439.95019   -519.12763    1982.0039   -513.04276   -11228.198    4.3413983    8.8887659    15.393581    14.485163            1            0            0          107 
    7390    445.31662   -519.18524    1983.3195   -513.02614   -12020.337    4.3385186    8.8909921    15.400962    14.484204            1            0            0          107 
    7400    436.42376   -519.04964    1984.0484   -513.01353   -12062.082    4.3369247    8.8924205    15.407235    14.481301            1            0            0          107 
Setting up Verlet run ...
  Unit style    : metal
  Current step  : 7400
  Time step     : 0.001
Per MPI rank memory allocation (min/avg/max) = 5.123 | 5.123 | 5.123 Mbytes
Step Temp E_pair Volume TotEng Press Density Lx Ly Lz v_cNi v_cCo v_cFe v_cTi 
    7400    436.42376   -519.04964    1984.0484   -513.01353   -12062.082    4.3369247    8.8924205    15.407235    14.481301            1            0            0          107 
    7410    429.02939   -518.93898    1984.1876   -513.00514   -11784.598    4.3366204    8.8930453    15.412269    14.476569            1            0            0          107 
    7420    434.93955   -519.01663    1983.7502   -513.00105   -11595.144    4.3375766    8.8928965    15.415961    14.470154            1            0            0          107 
    7430    446.18142   -519.17155     1982.748   -513.00049   -11376.094    4.3397692    8.8920147    15.418228     14.46215            1            0            0          107 
    7440    450.13851   -519.22932    1981.1958   -513.00353   -10776.841    4.3431692    8.8904457    15.419056    14.452604            1            0            0          107 
    7450    446.37513   -519.18332    1979.1268   -513.00958   -9691.7268    4.3477095    8.8882566    15.418521    14.441567            1            0            0          107 
    7460    443.26178   -519.14797    1976.5966   -513.01729   -8291.6101    4.3532749    8.8855411    15.416777    14.429145            1            0            0          107 
    7470    442.94959   -519.15098    1973.6765   -513.02461    -6662.437    4.3597157    8.8823942    15.414024    14.415506            1            0            0          107 
    7480    437.99202    -519.0878    1970.4494      -513.03   -4708.5047    4.3668558    8.8789013    15.410496    14.400894            1            0            0          107 
    7490    426.34833   -518.92786    1967.0126   -513.03111   -2502.1502    4.3744857    8.8751584    15.406437    14.385628            1            0            0          107 
    7500    421.03115   -518.85027    1963.4727   -513.02705   -485.15026    4.3823723     8.871278    15.402073    14.370091            1            0            0          107 
Setting up Verlet run ...
  Unit style    : metal
  Current step  : 7500
  Time step     : 0.001
Per MPI rank memory allocation (min/avg/max) = 5.123 | 5.123 | 5.123 Mbytes
Step Temp E_pair Volume TotEng Press Density Lx Ly Lz v_cNi v_cCo v_cFe v_cTi 
    7500    421.03115   -518.56195    1963.4727   -512.73874   -4029.9766    4.3915171     8.871278    15.402073    14.370091            2            0            0          106 
    7510    433.94935      -518.74    1959.8412   -512.73812     -2549.64    4.3996543    8.8672355    15.397349    14.354455            2            0            0          106 
    7520    459.87533   -519.09471    1956.1062   -512.73425   -1409.9193    4.4080551    8.8629619    15.392197    14.338805            2            0            0          106 
    7530    477.97647   -519.33845     1952.326   -512.72764   -12.910748    4.4165904    8.8584799     15.38683    14.323329            2            0            0          106 
    7540    474.20596   -519.27565    1948.5698   -512.71699    2092.1409     4.425104    8.8538298    15.381534    14.308204            2            0            0          106 
    7550    455.53791   -519.00209    1944.9367   -512.70162    4675.4492    4.4333701    8.8491019    15.376661    14.293686            2            0            0          106 
    7560    444.79528   -518.83415    1941.5438   -512.68226    6953.7021    4.4411173     8.844431    15.372546    14.280108            2            0            0          106 
    7570    458.22956   -518.99826     1938.493   -512.66056    8330.6243    4.4481067     8.839953    15.369415    14.267798            2            0            0          106 
    7580    488.42847   -519.39431    1935.8457   -512.63893    8960.1094    4.4541897    8.8357619     15.36733    14.257006            2            0            0          106 
    7590    512.17849   -519.70266    1933.6303    -512.6188    9521.9532     4.459293    8.8319071    15.366254    14.247903            2            0            0          106 
    7600    510.34702   -519.65929    1931.8719   -512.60076    10592.226    4.4633518    8.8284247    15.366163    14.240645            2            0            0          106 
Setting up Verlet run ...
  Unit style    : metal
  Current step  : 7600
  Time step     : 0.001
Per MPI rank memory allocation (min/avg/max) = 5.123 | 5.123 | 5.123 Mbytes
Step Temp E_pair Volume TotEng Press Density Lx Ly Lz v_cNi v_cCo v_cFe v_cTi 
    7600    510.34702   -519.65929    1931.8719   -512.60076    10592.226    4.4633518    8.8284247    15.366163    14.240645            2            0            0          106 
    7610    482.33602   -519.25706    1930.6172   -512.58595    12139.335    4.4662525    8.8253706    15.367126    14.235429            2            0            0          106 
    7620    448.19706   -518.77457    1929.9322   -512.57563    13504.418    4.4678377    8.8228326    15.369286    14.232471            2            0            0          106 
    7630    433.60556   -518.56907    1929.8738   -512.57195    13924.868     4.467973    8.8209087    15.372777    14.231912            2            0            0          106 
    7640    445.20642   -518.73165    1930.4578   -512.57408    13277.189    4.4666213    8.8196716    15.377623    14.233729            2            0            0          106 
    7650    462.35954   -518.97577    1931.6547   -512.58095    12168.947    4.4638538    8.8191538    15.383726     14.23774            2            0            0          106 
    7660    461.12841    -518.9689    1933.4149   -512.59111    11262.648    4.4597897    8.8193622    15.390923    14.243713            2            0            0          106 
    7670    443.82935   -518.74248    1935.6964   -512.60395    10488.306    4.4545334    8.8202894     15.39907    14.251478            2            0            0          106 
    7680    434.78587   -518.63244    1938.4604   -512.61899    9168.0662    4.4481817    8.8218962    15.408048    14.260914            2            0            0          106 
    7690    449.13288   -518.84532    1941.6439   -512.63343    6911.2513    4.4408884    8.8240899    15.417705    14.271839            2            0            0          106 
    7700    473.23895   -519.18919    1945.1434    -512.6439    4174.4882    4.4328989    8.8267359    15.427776    14.283945            2            0            0          106 
Setting up Verlet run ...
  Unit style    : metal
  Current step  : 7700
  Time step     : 0.001
Per MPI rank memory allocation (min/avg/max) = 5.123 | 5.123 | 5.123 Mbytes
Step Temp E_pair Volume TotEng Press Density Lx Ly Lz v_cNi v_cCo v_cFe v_cTi 
    7700    473.23895   -519.18919    1945.1434    -512.6439    4174.4882    4.4328989    8.8267359    15.427776    14.283945            2            0            0          106 
    7710    478.85876   -519.27201    1948.8343   -512.64899    1876.8479    4.4245034    8.8297019    15.437902    14.296857            2            0            0          106 
    7720    458.12819   -518.98607    1952.6102   -512.64978     397.9685    4.4159474    8.8329018    15.447738    14.310251            2            0            0          106 
    7730    431.87934   -518.62105     1956.399    -512.6478   -751.22507    4.4073955    8.8362929    15.457022    14.323908            2            0            0          106 
    7740    421.76687   -518.47673    1960.1423   -512.64334   -2260.8135    4.3989785    8.8398276    15.465546    14.337669            2            0            0          106 
    7750    432.63122   -518.61939    1963.7661   -512.63574    -4386.434     4.390861    8.8434104    15.473087    14.351358            2            0            0          106 
    7760    456.86701   -518.94296    1967.1683   -512.62411    -6840.982     4.383267    8.8468895    15.479374    14.364732            2            0            0          106 
    7770    479.47211   -519.24076    1970.2325   -512.60926    -9025.937      4.37645    8.8500814    15.484138    14.377493            2            0            0          106 
    7780    483.20089   -519.27674    1972.8548   -512.59367   -10391.122    4.3706328    8.8528197    15.487195    14.389336            2            0            0          106 
    7790    464.96717   -519.01058    1974.9696    -512.5797    -10898.56    4.3659528    8.8549975    15.488487    14.400016            2            0            0          106 
    7800     445.6078   -518.73188    1976.5501   -512.56875   -11157.234    4.3624617    8.8565682    15.488063    14.409379            2            0            0          106 
Setting up Verlet run ...
  Unit style    : metal
  Current step  : 7800
  Time step     : 0.001
Per MPI rank memory allocation (min/avg/max) = 5.123 | 5.123 | 5.123 Mbytes
Step Temp E_pair Volume TotEng Press Density Lx Ly Lz v_cNi v_cCo v_cFe v_cTi 
    7800     445.6078   -518.73188    1976.5501   -512.56875   -11157.234    4.3624617    8.8565682    15.488063    14.409379            2            0            0          106 
    7810    445.80874    -518.7272     1977.582   -512.56129   -11737.575    4.3601853    8.8574997    15.485995     14.41731            2            0            0          106 
    7820    459.63039    -518.9148    1978.0392   -512.55773   -12461.965    4.3591775    8.8577392    15.482316     14.42368            2            0            0          106 
    7830    465.41465   -518.99538    1977.8917    -512.5583   -12654.764    4.3595027    8.8572291    15.477039    14.428353            2            0            0          106 
    7840    452.51198   -518.82198    1977.1351   -512.56336   -11966.057    4.3611709    8.8559488    15.470241    14.431257            2            0            0          106 
    7850    430.46821    -518.5256     1975.806   -512.57186   -10683.479    4.3641047    8.8539286    15.462107    14.432435            2            0            0          106 
    7860    416.90381   -518.34836    1973.9686   -512.58223    -9360.026    4.3681667    8.8512288    15.452893    14.432012            2            0            0          106 
    7870     420.7491   -518.41302      1971.69   -512.59371   -8307.6363    4.3732149    8.8479117    15.442841    14.430144            2            0            0          106 
    7880    436.42035   -518.64222    1969.0255   -512.60616   -7422.0607    4.3791328    8.8440337    15.432126    14.426972            2            0            0          106 
    7890    452.27242     -518.874    1966.0232   -512.61869    -6409.402    4.3858202    8.8396586    15.420871    14.422622            2            0            0          106 
    7900    464.24069   -519.05099    1962.7364   -512.63016   -5125.3709    4.3931645    8.8348746    15.409219    14.417201            2            0            0          106 
Setting up Verlet run ...
  Unit style    : metal
  Current step  : 7900
  Time step     : 0.001
Per MPI rank memory allocation (min/avg/max) = 5.123 | 5.123 | 5.123 Mbytes
Step Temp E_pair Volume TotEng Press Density Lx Ly Lz v_cNi v_cCo v_cFe v_cTi 
    7900    464.24069   -519.05099    1962.7364   -512.63016   -5125.3709    4.3931645    8.8348746    15.409219    14.417201            2            0            0          106 
    7910    474.71074   -519.20524    1959.2303   -512.63959   -3603.9789    4.4010263       8.8298    15.397352    14.410816            2            0            0          106 
    7920    481.89826   -519.31143    1955.5803   -512.64638   -1861.4236    4.4092405    8.8245785    15.385456    14.403609            2            0            0          106 
    7930    482.45255   -519.32244    1951.8717   -512.64972    77.918502    4.4176182    8.8193743    15.373672    14.395803            2            0            0          106 
    7940    478.85377   -519.27203    1948.1968   -512.64908    2073.0282    4.4259512    8.8143691    15.362101    14.387687            2            0            0          106 
    7950    475.42983   -519.22035    1944.6491   -512.64476    3986.7924    4.4340257    8.8097469    15.350873    14.379531            2            0            0          106 
    7960    469.42175   -519.12988    1941.3174   -512.63739    5871.5548    4.4416354    8.8056722    15.340201    14.371529            2            0            0          106 
    7970     454.5467   -518.91439    1938.2881   -512.62763    7830.4582    4.4485772    8.8022902    15.330389    14.363804            2            0            0          106 
    7980    438.89352    -518.6867    1935.6482   -512.61644    9624.4182    4.4546443    8.7997362    15.321773    14.356473            2            0            0          106 
    7990    438.57617   -518.67259    1933.4749   -512.60671    10850.848    4.4596514    8.7981154    15.314629    14.349686            2            0            0          106 
    8000     450.6794   -518.83232    1931.8201   -512.59905    11537.348    4.4634715    8.7974687    15.309099    14.343638            2            0            0          106 
Setting up Verlet run ...
  Unit style    : metal
  Current step  : 8000
  Time step     : 0.001
Per MPI rank memory allocation (min/avg/max) = 5.123 | 5.123 | 5.123 Mbytes
Step Temp E_pair Volume TotEng Press Density Lx Ly Lz v_cNi v_cCo v_cFe v_cTi 
    8000     450.6794   -518.83232    1931.8201   -512.59905    11537.348    4.4634715    8.7974687    15.309099    14.343638            2            0            0          106 
    8010    462.90787   -518.99672    1930.7116   -512.59431    11906.567    4.4660343    8.7977816    15.305208    14.338542            2            0            0          106 
    8020    472.10893   -519.12338     1930.162   -512.59372    12022.511    4.4673059    8.7990172     15.30292     14.33459            2            0            0          106 
    8030    475.26581   -519.17045    1930.1731   -512.59713    11994.117      4.46728    8.8011343    15.302183    14.331915            2            0            0          106 
    8040    465.28158   -519.04009     1930.741   -512.60486    11990.793    4.4659661    8.8040916    15.302949    14.330599            2            0            0          106 
    8050    445.44343   -518.77692    1931.8626   -512.61607    11908.016    4.4633734    8.8078452     15.30522    14.330686            2            0            0          106 
    8060    433.88284   -518.63172    1933.5296   -512.63076     11246.85    4.4595252    8.8123314    15.309046    14.332168            2            0            0          106 
    8070    442.93883   -518.77392    1935.7084   -512.64771    9743.0986    4.4545058    8.8174465    15.314451    14.334933            2            0            0          106 
    8080    464.59749   -519.09117    1938.3287    -512.6654    7708.6755     4.448484     8.823056    15.321352     14.33875            2            0            0          106 
    8090    484.00517   -519.37559    1941.2969   -512.68139    5640.5387    4.4416822    8.8290353    15.329538    14.343319            2            0            0          106 
    8100    493.56916   -519.52172    1944.5168   -512.69525    3774.1043    4.4343273    8.8352977    15.338696    14.348354            2            0            0          106 
Setting up Verlet run ...
  Unit style    : metal
  Current step  : 8100
  Time step     : 0.001
Per MPI rank memory allocation (min/avg/max) = 5.123 | 5.123 | 5.123 Mbytes
Step Temp E_pair Volume TotEng Press Density Lx Ly Lz v_cNi v_cCo v_cFe v_cTi 
    8100    493.56916   -519.52172    1944.5168   -512.69525    3774.1043    4.4343273    8.8352977    15.338696    14.348354            2            0            0          106 
    8110    491.91549   -519.50997    1947.9006   -512.70637    2138.6309    4.4266242    8.8417825    15.348471    14.353633            2            0            0          106 
    8120    479.34713   -519.34398     1951.371   -512.71421     699.0773    4.4187518    8.8484203    15.358543    14.358996            2            0            0          106 
    8130    459.59042   -519.07522    1954.8591    -512.7187   -660.30749    4.4108673    8.8551082    15.368678     14.36432            2            0            0          106 
    8140    443.37545   -518.85246     1958.299    -512.7202   -2145.6297    4.4031192    8.8617085    15.378716    14.369494            2            0            0          106 
    8150    438.45977   -518.78257    1961.6192    -512.7183   -3803.7533    4.3956667    8.8680661    15.388508    14.374384            2            0            0          106 
    8160    439.90793   -518.79801    1964.7406   -512.71372   -5452.7516    4.3886832    8.8740358    15.397889    14.378807            2            0            0          106 
    8170    442.83168   -518.83203    1967.5845    -512.7073   -6970.7191    4.3823398    8.8795054    15.406693    14.382527            2            0            0          106 
    8180    452.76053   -518.96232    1970.0775   -512.70026    -8499.898    4.3767944    8.8843919     15.41476    14.385296            2            0            0          106 
    8190    471.54973   -519.21568    1972.1461   -512.69375   -10066.424    4.3722036    8.8886127    15.421893    14.386906            2            0            0          106 
    8200    485.25727   -519.40001    1973.7177    -512.6885   -11240.035     4.368722    8.8920715    15.427812    14.387249            2            0            0          106 
Setting up Verlet run ...
  Unit style    : metal
  Current step  : 8200
  Time step     : 0.001
Per MPI rank memory allocation (min/avg/max) = 5.123 | 5.123 | 5.123 Mbytes
Step Temp E_pair Volume TotEng Press Density Lx Ly Lz v_cNi v_cCo v_cFe v_cTi 
    8200    485.25727   -519.40001    1973.7177    -512.6885   -11240.035     4.368722    8.8920715    15.427812    14.387249            2            0            0          106 
    8210    474.29927   -519.24575    1974.7406    -512.6858   -11440.374     4.366459    8.8946893    15.432196    14.386381            2            0            0          106 
    8220    437.99996   -518.74405    1975.2086   -512.68614   -10626.855    4.3654244    8.8964571    15.434789    14.384513            2            0            0          106 
    8230    401.35326   -518.24071    1975.1622   -512.68966   -9496.6695    4.3655271    8.8974459    15.435498    14.381916            2            0            0          106 
    8240    391.43366   -518.10986     1974.656     -512.696   -8867.9897    4.3666462    8.8977518    15.434393    14.378765            2            0            0          106 
    8250    413.38079   -518.42275    1973.7229   -512.70534   -8940.1662    4.3687105    8.8974246    15.431638    14.375066            2            0            0          106 
    8260    446.90543   -518.89889    1972.3655   -512.71782   -9170.0643    4.3717171    8.8964491    15.427414    14.370688            2            0            0          106 
    8270    464.72994    -519.1605    1970.5801    -512.7329    -8834.568    4.3756779    8.8947947     15.42189    14.365494            2            0            0          106 
    8280    459.47528   -519.10407     1968.389   -512.74914   -7738.6101    4.3805487    8.8924781    15.415232    14.359458            2            0            0          106 
    8290    447.61445   -518.95617    1965.8483   -512.76529   -6291.4301    4.3862102    8.8895774    15.407618    14.352692            2            0            0          106 
    8300    445.42508   -518.94086    1963.0304   -512.78026   -4883.5164    4.3925067    8.8861909    15.399229    14.345391            2            0            0          106 
Setting up Verlet run ...
  Unit style    : metal
  Current step  : 8300
  Time step     : 0.001
Per MPI rank memory allocation (min/avg/max) = 5.123 | 5.123 | 5.123 Mbytes
Step Temp E_pair Volume TotEng Press Density Lx Ly Lz v_cNi v_cCo v_cFe v_cTi 
    8300    445.42508   -518.94086    1963.0304   -512.78026   -4883.5164    4.3925067    8.8861909    15.399229    14.345391            2            0            0          106 
    8310    447.54322   -518.98317    1960.0067   -512.79327   -3415.3289     4.399283     8.882393    15.390253    14.337777            2            0            0          106 
    8320    443.30173   -518.93438    1956.8512   -512.80315   -1718.3186     4.406377    8.8782324    15.380923     14.33009            2            0            0          106 
    8330    441.76474   -518.91979    1953.6455   -512.80981   -59.768555    4.4136074    8.8737555    15.371523    14.322584            2            0            0          106 
    8340    452.14915   -519.06744    1950.4681   -512.81384    1363.1233    4.4207972    8.8690088    15.362339    14.315497            2            0            0          106 
    8350    462.11894    -519.2074    1947.3873   -512.81591     2812.006    4.4277911    8.8640437    15.353599    14.309032            2            0            0          106 
    8360    461.23843   -519.19496     1944.471   -512.81565    4476.4532    4.4344319    8.8589473    15.345488    14.303379            2            0            0          106 
    8370    457.48165   -519.14089    1941.7941   -512.81353     6091.571    4.4405449    8.8538631    15.338171    14.298709            2            0            0          106 
    8380    459.16364   -519.16099     1939.428   -512.81037    7378.6087    4.4459624    8.8489707     15.33179    14.295128            2            0            0          106 
    8390    463.37061   -519.21587    1937.4289   -512.80706    8381.3834    4.4505499    8.8444461    15.326474    14.292654            2            0            0          106 
    8400    463.63724   -519.21722    1935.8397   -512.80473    9266.3099    4.4542036    8.8404323     15.32236     14.29125            2            0            0          106 
Setting up Verlet run ...
  Unit style    : metal
  Current step  : 8400
  Time step     : 0.001
Per MPI rank memory allocation (min/avg/max) = 5.123 | 5.123 | 5.123 Mbytes
Step Temp E_pair Volume TotEng Press Density Lx Ly Lz v_cNi v_cCo v_cFe v_cTi 
    8400    463.63724   -519.21722    1935.8397   -512.80473    9266.3099    4.4542036    8.8404323     15.32236     14.29125            2            0            0          106 
    8410    458.89387   -519.15084    1934.6968   -512.80396    10009.225    4.4568349    8.8370259    15.319611    14.290882            2            0            0          106 
    8420    456.59459   -519.12098    1934.0288    -512.8059    10350.567    4.4583741    8.8342684    15.318384    14.291552            2            0            0          106 
    8430    462.83804   -519.21278    1933.8462   -512.81134    10126.219    4.4587951    8.8321383    15.318769     14.29329            2            0            0          106 
    8440    472.38268    -519.3539     1934.135   -512.82045     9552.829    4.4581294    8.8305622    15.320768     14.29611            2            0            0          106 
    8450    473.56256    -519.3823    1934.8666   -512.83254    9069.8177    4.4564437      8.82945    15.324325         14.3            2            0            0          106 
    8460    458.81265   -519.19314    1936.0168   -512.84738    8925.2866     4.453796    8.8287401    15.329369    14.304942            2            0            0          106 
    8470    436.82439   -518.90572    1937.5753   -512.86407    8796.8668    4.4502137    8.8284161     15.33583    14.310951            2            0            0          106 
    8480    428.99036    -518.8154    1939.5308   -512.88211    7993.9746    4.4457268     8.828484    15.343581    14.318048            2            0            0          106 
    8490    445.88935   -519.06683    1941.8422   -512.89981    6200.9678    4.4404349    8.8289385    15.352361    14.326175            2            0            0          106 
[...]
Step Temp E_pair Volume TotEng Press Density Lx Ly Lz v_cNi v_cCo v_cFe v_cTi 
  137800    387.08769   -520.41482    1539.6628   -515.06108   -3248.2909    6.1108758    8.1426625    14.242744    13.275947            1            2           58           47 
  137810    426.81003   -520.96517    1537.0892   -515.06203   -2617.4091    6.1211075    8.1408722    14.227836    13.270561            1            2           58           47 
  137820    436.39092   -521.09583    1534.4681   -515.06018   -1029.8567    6.1315635    8.1390114    14.212093    13.265638            1            2           58           47 
  137830    413.46096   -520.77223     1531.847   -515.05372    1448.7173     6.142055     8.137068    14.195826     13.26132            1            2           58           47 
  137840    385.06834    -520.3678    1529.2963   -515.04198    4023.2263    6.1522992    8.1350723      14.1795    13.257734            1            2           58           47 
  137850    372.76001   -520.18135    1526.8891   -515.02577    6449.0384    6.1619986    8.1330823    14.163582    13.254985            1            2           58           47 
  137860    377.69542   -520.23009    1524.6936   -515.00625    8867.1769    6.1708716    8.1311746    14.148437    13.253202            1            2           58           47 
  137870    388.68902   -520.36099     1522.776    -514.9851    11177.989    6.1786422    8.1294473    14.134331    13.252559            1            2           58           47 
  137880    401.55274   -520.51798    1521.1982   -514.96417    13007.294    6.1850508    8.1280149    14.121481     13.25321            1            2           58           47 
  137890    418.33878   -520.73087    1520.0075   -514.94489    14046.897     6.189896     8.126981    14.110047    13.255253            1            2           58           47 
  137900    432.46358   -520.91004    1519.2297   -514.92871    14531.297     6.193065    8.1264159      14.1001    13.258739            1            2           58           47 
Setting up Verlet run ...
  Unit style    : metal
  Current step  : 137900
  Time step     : 0.001
Per MPI rank memory allocation (min/avg/max) = 5.131 | 5.131 | 5.131 Mbytes
Step Temp E_pair Volume TotEng Press Density Lx Ly Lz v_cNi v_cCo v_cFe v_cTi 
  137900    432.46358   -520.91004    1519.2297   -514.92871    14531.297     6.193065    8.1264159      14.1001    13.258739            1            2           58           47 
  137910    434.04055    -520.9195    1518.8756   -514.91636    14892.974     6.194509    8.1263828    14.091635    13.263665            1            2           58           47 
  137920    425.63867   -520.79476    1518.9516   -514.90782    15073.375    6.1941989    8.1269767     14.08462    13.269965            1            2           58           47 
  137930     421.1421   -520.72764    1519.4581    -514.9029    14526.871     6.192134    8.1283086    14.079024    13.277491            1            2           58           47 
  137940    430.68739    -520.8571    1520.3755   -514.90033     12960.34    6.1883976    8.1304424    14.074796     13.28601            1            2           58           47 
  137950     451.3247   -521.14079    1521.6571   -514.89859    10680.823    6.1831856    8.1333534    14.071848    13.295235            1            2           58           47 
  137960    465.23407    -521.3307    1523.2375   -514.89612     8436.214    6.1767706    8.1369396    14.070047     13.30488            1            2           58           47 
  137970      450.827   -521.12801    1525.0529    -514.8927    6936.8817    6.1694177    8.1410796    14.069256    13.314711            1            2           58           47 
  137980    410.50519   -520.56739    1527.0595   -514.88976    6072.7522    6.1613108    8.1456993    14.069379    13.324554            1            2           58           47 
  137990     378.1465    -520.1174    1529.2292   -514.88732    4750.0106    6.1525692    8.1507836    14.070326    13.334264            1            2           58           47 
  138000     377.9729   -520.11196    1531.5211   -514.88427    2381.5059    6.1433619    8.1563158    14.071913    13.343686            1            2           58           47 
Setting up Verlet run ...
  Unit style    : metal
  Current step  : 138000
  Time step     : 0.001
Per MPI rank memory allocation (min/avg/max) = 5.131 | 5.131 | 5.131 Mbytes
Step Temp E_pair Volume TotEng Press Density Lx Ly Lz v_cNi v_cCo v_cFe v_cTi 
  138000     377.9729   -520.11196    1531.5211   -514.88427    2381.5059    6.1433619    8.1563158    14.071913    13.343686            1            2           58           47 
  138010    393.09323   -520.31541    1533.8679    -514.8786   -201.79306    6.1339627    8.1622293    14.073833    13.352628            1            2           58           47 
  138020    401.41406   -520.42171    1536.1966   -514.86982   -1976.2026    6.1246641    8.1684249    14.075783    13.360906            1            2           58           47 
  138030    409.91443   -520.52906     1538.455    -514.8596   -3109.8503    6.1156733    8.1748095    14.077598    13.368375            1            2           58           47 
  138040    430.85288   -520.80698    1540.6076   -514.84793   -4472.1299    6.1071284    8.1812932     14.07922    13.374929            1            2           58           47 
  138050    454.47266   -521.11989    1542.6141   -514.83416    -6161.579    6.0991848    8.1877497    14.080604    13.380473            1            2           58           47 
  138060    456.27358   -521.12931    1544.4279   -514.81866    -7220.444    6.0920219    8.1940088    14.081682    13.384947            1            2           58           47 
  138070    429.02202   -520.73656    1546.0195   -514.80283   -7340.9258      6.08575    8.1999058    14.082419    13.388405            1            2           58           47 
  138080     396.8142   -520.27622    1547.3844   -514.78795   -7354.4257    6.0803819    8.2053194    14.082834    13.390989            1            2           58           47 
  138090    382.12003   -520.05893     1548.521   -514.77389   -8052.7964    6.0759189    8.2101454    14.082974    13.392815            1            2           58           47 
  138100    388.08923   -520.12761    1549.4095   -514.76001   -9400.9615    6.0724348    8.2142642    14.082868    13.393882            1            2           58           47 
Setting up Verlet run ...
  Unit style    : metal
  Current step  : 138100
  Time step     : 0.001
Per MPI rank memory allocation (min/avg/max) = 5.131 | 5.131 | 5.131 Mbytes
Step Temp E_pair Volume TotEng Press Density Lx Ly Lz v_cNi v_cCo v_cFe v_cTi 
  138100    388.08923   -520.12761    1549.4095   -514.76001   -9400.9615    6.0724348    8.2142642    14.082868    13.393882            1            2           58           47 
  138110    404.27439   -520.33904    1550.0124   -514.74759   -10767.959     6.070073    8.2175651    14.082485    13.394075            1            2           58           47 
  138120    411.98848   -520.43562    1550.2924   -514.73747    -11463.32    6.0689766    8.2199921    14.081752    13.393236            1            2           58           47 
  138130    408.44625    -520.3793    1550.2313   -514.73014   -11451.122    6.0692158    8.2215523    14.080625    13.391239            1            2           58           47 
  138140    411.97789   -520.42419    1549.8302   -514.72619   -11381.263    6.0707865    8.2222724    14.079164     13.38799            1            2           58           47 
  138150    429.42893   -520.66532    1549.0931   -514.72596   -11518.603    6.0736753    8.2221547    14.077521    13.383376            1            2           58           47 
  138160    444.79827   -520.88156    1548.0199   -514.72963   -11362.674    6.0778859    8.2211831    14.075876    13.377249            1            2           58           47 
  138170    441.44492   -520.84232    1546.6204   -514.73676   -10248.283    6.0833855    8.2193625    14.074397     13.36952            1            2           58           47 
  138180    423.86087   -520.60885    1544.9308    -514.7465   -8336.8344    6.0900385    8.2167531    14.073251    13.360244            1            2           58           47 
  138190     414.8317   -520.49401    1543.0084   -514.75654   -6539.6394     6.097626    8.2134652     14.07255    13.349625            1            2           58           47 
  138200    426.96894   -520.67056    1540.9075   -514.76522   -5296.2253    6.1059397    8.2096211    14.072274    13.337953            1            2           58           47 
Setting up Verlet run ...
  Unit style    : metal
  Current step  : 138200
  Time step     : 0.001
Per MPI rank memory allocation (min/avg/max) = 5.131 | 5.131 | 5.131 Mbytes
Step Temp E_pair Volume TotEng Press Density Lx Ly Lz v_cNi v_cCo v_cFe v_cTi 
  138200    426.96894   -520.67056    1540.9075   -514.76522   -5296.2253    6.1059397    8.2096211    14.072274    13.337953            1            2           58           47 
  138210    442.29888   -520.88818    1538.6684   -514.77081   -3951.5501    6.1148252    8.2053342     14.07227    13.325533            1            2           58           47 
  138220    435.92077   -520.80073    1536.3346   -514.77158   -1707.7992     6.124114    8.2007274    14.072378    13.312694            1            2           58           47 
  138230    415.30637   -520.51014    1533.9727    -514.7661    1170.2634    6.1335435    8.1959489    14.072536    13.299827            1            2           58           47 
  138240     408.1306   -520.40037    1531.6644   -514.75558     3697.126    6.1427869    8.1911461    14.072779    13.287372            1            2           58           47 
  138250    418.62249   -520.53103     1529.482   -514.74113    5691.4404    6.1515522    8.1864311    14.073163    13.275719            1            2           58           47 
  138260    419.56527   -520.52709    1527.4833   -514.72416    7730.1089    6.1596015     8.181894    14.073772    13.265148            1            2           58           47 
  138270    407.80809   -520.34628    1525.7248   -514.70596    9596.9049    6.1667006    8.1776416    14.074743    13.255853            1            2           58           47 
  138280    410.42756   -520.36562    1524.2563   -514.68906    10753.626    6.1726417    8.1737872    14.076231    13.247939            1            2           58           47 
  138290    431.35605    -520.6402    1523.1082   -514.67419    11343.808    6.1772947    8.1704247     14.07833    13.241433            1            2           58           47 
  138300    451.09822    -520.9001    1522.2954   -514.66103    11813.423    6.1805928    8.1676173    14.081067    13.236343            1            2           58           47 
Setting up Verlet run ...
  Unit style    : metal
  Current step  : 138300
  Time step     : 0.001
Per MPI rank memory allocation (min/avg/max) = 5.131 | 5.131 | 5.131 Mbytes
Step Temp E_pair Volume TotEng Press Density Lx Ly Lz v_cNi v_cCo v_cFe v_cTi 
  138300    451.09822    -520.9001    1522.2954   -514.66103    11813.423    6.1805928    8.1676173    14.081067    13.236343            1            2           58           47 
  138310     456.1548   -520.95944    1521.8292   -514.65043    12293.178    6.1824865    8.1653933    14.084469    13.232696            1            2           58           47 
  138320    446.34229   -520.81688    1521.7205   -514.64359    12694.221    6.1829278    8.1637486    14.088618    13.230519            1            2           58           47 
  138330    430.45106   -520.59398    1521.9784   -514.64048    12782.594    6.1818802    8.1626592    14.093642     13.22981            1            2           58           47 
  138340    422.86196   -520.48994    1522.6023    -514.6414    12175.044    6.1793472    8.1620865    14.099655    13.230516            1            2           58           47 
  138350    426.43963   -520.54298    1523.5735   -514.64496    11047.542    6.1754084    8.1619739    14.106676    13.232549            1            2           58           47 
  138360    429.90444   -520.59545    1524.8591   -514.64951    9750.9641    6.1702016    8.1622747    14.114574    13.235817            1            2           58           47 
  138370    425.11264   -520.53372    1526.4215   -514.65406    8397.1374    6.1638862    8.1629742    14.123117    13.240229            1            2           58           47 
  138380    415.60079   -520.40623    1528.2212   -514.65813    7034.6227     6.156627    8.1640743    14.132067    13.245659            1            2           58           47 
  138390    418.81431   -520.45394    1530.2181   -514.66139    5412.2865    6.1485931    8.1655633    14.141247     13.25194            1            2           58           47 
  138400    443.06755   -520.79116    1532.3638   -514.66317    3286.1337    6.1399835    8.1673708    14.150513    13.258898            1            2           58           47 
Setting up Verlet run ...
  Unit style    : metal
  Current step  : 138400
  Time step     : 0.001
Per MPI rank memory allocation (min/avg/max) = 5.131 | 5.131 | 5.131 Mbytes
Step Temp E_pair Volume TotEng Press Density Lx Ly Lz v_cNi v_cCo v_cFe v_cTi 
  138400    443.06755   -520.79116    1532.3638   -514.66317    3286.1337    6.1399835    8.1673708    14.150513    13.258898            1            2           58           47 
  138410    463.31669   -521.07079    1534.5975   -514.66273    1123.6256    6.1310464    8.1693514    14.159724    13.266371            1            2           58           47 
  138420    453.92927   -520.93792    1536.8573    -514.6597   -677.98722    6.1220312    8.1713432    14.168744    13.274212            1            2           58           47 
  138430    428.82458   -520.58569    1539.0898   -514.65469   -2468.6364    6.1131511    8.1732147     14.17746    13.282279            1            2           58           47 
  138440     410.5691   -520.32663    1541.2414   -514.64812   -4539.6729    6.1046169    8.1748398    14.185754    13.290429            1            2           58           47 
  138450    393.94165   -520.08832    1543.2522   -514.63978   -6387.1249    6.0966626     8.176077    14.193498    13.298495            1            2           58           47 
  138460    373.33415   -519.79409    1545.0691   -514.63057   -7507.4751    6.0894934    8.1768095     14.20062    13.306282            1            2           58           47 
  138470    370.90527   -519.75125    1546.6576   -514.62132    -8356.033    6.0832392     8.176982    14.207126    13.313582            1            2           58           47 
  138480    405.93896   -520.22697    1547.9908    -514.6125   -9511.7382        6.078     8.176573    14.213031    13.320188            1            2           58           47 
  138490    454.28959   -520.88744    1549.0353   -514.60423   -10696.469    6.0739018     8.175556    14.218272     13.32592            1            2           58           47 
  138500     477.5879   -521.20266     1549.758   -514.59722   -11369.197    6.0710695    8.1738908    14.222733     13.33067            1            2           58           47 
Setting up Verlet run ...
  Unit style    : metal
  Current step  : 138500
  Time step     : 0.001
Per MPI rank memory allocation (min/avg/max) = 5.131 | 5.131 | 5.131 Mbytes
Step Temp E_pair Volume TotEng Press Density Lx Ly Lz v_cNi v_cCo v_cFe v_cTi 
  138500     477.5879   -521.20266     1549.758   -514.59722   -11369.197    6.0710695    8.1738908    14.222733     13.33067            1            2           58           47 
  138510    461.09154   -520.97016    1550.1414   -514.59287   -11120.797    6.0695678    8.1715341     14.22634    13.334432            1            2           58           47 
  138520    419.65588   -520.39554    1550.1946   -514.59135   -10068.588    6.0693596    8.1684719    14.229088    13.337312            1            2           58           47 
  138530    389.90979   -519.98495    1549.9483   -514.59217   -9075.6544     6.070324    8.1647433    14.231025    13.339468            1            2           58           47 
  138540    397.09166   -520.08675    1549.4314   -514.59464   -8865.7797    6.0723491     8.160409    14.232209    13.340991            1            2           58           47 
  138550     434.5353    -520.6085    1548.6513   -514.59851   -9401.5912     6.075408    8.1555086    14.232678    13.341847            1            2           58           47 
  138560    469.30023   -521.09454    1547.5957   -514.60373   -9805.9595    6.0795519    8.1500693    14.232407    13.341906            1            2           58           47 
  138570    463.31752   -521.01698    1546.2582   -514.60891   -8830.5516    6.0848105    8.1441567    14.231317    13.341074            1            2           58           47 
  138580    419.14025   -520.40946    1544.6711    -514.6124   -6273.7498    6.0910624    8.1379259    14.229376    13.339405            1            2           58           47 
  138590    386.05765   -519.95265    1542.9085   -514.61315   -3601.4952     6.098021    8.1316149    14.226647    13.337082            1            2           58           47 
  138600    396.32165   -520.09276    1541.0471    -514.6113   -2003.6483    6.1053865    8.1254638    14.223233    13.334276            1            2           58           47 
Setting up Verlet run ...
  Unit style    : metal
  Current step  : 138600
  Time step     : 0.001
Per MPI rank memory allocation (min/avg/max) = 5.131 | 5.131 | 5.131 Mbytes
Step Temp E_pair Volume TotEng Press Density Lx Ly Lz v_cNi v_cCo v_cFe v_cTi 
  138600    396.32165   -519.99435    1541.0471   -514.51289    -2195.984    6.1053865    8.1254638    14.223233    13.334276            1            2           58           47 
  138610    434.04635     -520.513    1539.1327   -514.50978   -1353.3871    6.1129806    8.1196568    14.219179    13.331035            1            2           58           47 
  138620    467.29706   -520.96883    1537.1893   -514.50572   -522.84195    6.1207091    8.1143353    14.214475    13.327343            1            2           58           47 
  138630    471.27386   -521.01988     1535.243   -514.50177    813.98144    6.1284686    8.1096192     14.20908    13.323266            1            2           58           47 
  138640    440.17336   -520.58522    1533.3344   -514.49725    3007.8927    6.1360968    8.1055992    14.202965    13.319035            1            2           58           47 
  138650    396.08818   -519.97006    1531.5262   -514.49183    5519.0673    6.1433415    8.1023409    14.196225    13.314996            1            2           58           47 
  138660     370.3769   -519.60871    1529.8876   -514.48608    7287.8592    6.1499211    8.0998938    14.189089     13.31146            1            2           58           47 
  138670    380.55478   -519.74431    1528.4674   -514.48092    7945.8007    6.1556356    8.0982818    14.181798    13.308588            1            2           58           47 
  138680    414.27282   -520.20712    1527.2839   -514.47738    8061.6353    6.1604057    8.0974907    14.174509    13.306422            1            2           58           47 
  138690    440.76034   -520.57095    1526.3407   -514.47487     8427.922    6.1642123    8.0974793    14.167328    13.304964            1            2           58           47 
  138700     450.3247   -520.70071    1525.6474   -514.47234    9090.5281    6.1670137    8.0982107    14.160411    13.304215            1            2           58           47 
Setting up Verlet run ...
  Unit style    : metal
  Current step  : 138700
  Time step     : 0.001
Per MPI rank memory allocation (min/avg/max) = 5.131 