LAMMPS (22 Aug 2018)
Processor partition = 0
OMP_NUM_THREADS environment is not set. Defaulting to 1 thread. (../comm.cpp:87)
  using 1 OpenMP thread(s) per MPI task
Reading data file ...
  orthogonal box = (0 0 0) to (10.56 10.56 10.56)
  1 by 1 by 1 MPI processor grid
  reading atoms ...
  108 atoms
  reading velocities ...
  108 velocities
dynamic group Ni defined
dynamic group Co defined
dynamic group Ti defined
dynamic group Fe defined
Neighbor list info ...
  update every 1 steps, delay 10 steps, check yes
  max neighbors/atom: 2000, page size: 100000
  master list distance cutoff = 8.56034
  ghost atom cutoff = 8.56034
  binsize = 4.28017, bins = 3 3 3
  1 neighbor lists, perpetual/occasional/extra = 1 0 0
  (1) pair eam/alloy, perpetual
      attributes: half, newton on
      pair build: half/bin/atomonly/newton
      stencil: half/bin/3d/newton
      bin: standard
Setting up Verlet run ...
  Unit style    : metal
  Current step  : 0
  Time step     : 0.001
Per MPI rank memory allocation (min/avg/max) = 3.023 | 3.023 | 3.023 Mbytes
Step Temp E_pair E_mol TotEng Press Volume 
       0          800   -480.59968            0   -469.53501    9439.4416    1177.5836 
    5000    402.87748   -474.75588            0   -469.18375    2535.5942    1193.9394 
Loop time of 2.18423 on 1 procs for 5000 steps with 108 atoms

Performance: 197.782 ns/day, 0.121 hours/ns, 2289.141 timesteps/s
100.0% CPU use with 1 MPI tasks x 1 OpenMP threads

MPI task timing breakdown:
Section |  min time  |  avg time  |  max time  |%varavg| %total
---------------------------------------------------------------
Pair    | 1.9895     | 1.9895     | 1.9895     |   0.0 | 91.09
Neigh   | 0          | 0          | 0          |   0.0 |  0.00
Comm    | 0.042534   | 0.042534   | 0.042534   |   0.0 |  1.95
Output  | 3.1471e-05 | 3.1471e-05 | 3.1471e-05 |   0.0 |  0.00
Modify  | 0.1298     | 0.1298     | 0.1298     |   0.0 |  5.94
Other   |            | 0.02235    |            |       |  1.02

Nlocal:    108 ave 108 max 108 min
Histogram: 1 0 0 0 0 0 0 0 0 0
Nghost:    1940 ave 1940 max 1940 min
Histogram: 1 0 0 0 0 0 0 0 0 0
Neighs:    12096 ave 12096 max 12096 min
Histogram: 1 0 0 0 0 0 0 0 0 0

Total # of neighbors = 12096
Ave neighs/atom = 112
Neighbor list builds = 0
Dangerous builds = 0
WARNING: Using 'neigh_modify every 1 delay 0 check yes' setting during minimization (../min.cpp:168)
Setting up Verlet run ...
  Unit style    : metal
  Current step  : 5000
  Time step     : 0.001
Per MPI rank memory allocation (min/avg/max) = 5.152 | 5.152 | 5.152 Mbytes
Step Temp E_pair Volume TotEng Press Density Lx Ly Lz v_cNi v_cCo v_cFe v_cTi 
    5000    402.87748   -474.75588    1193.9394   -469.18375    2535.5942    8.8161067    10.633795    10.586772    10.605482          108            0            0            0 
    5010    423.38284   -475.03957    1193.9591   -469.18383    1436.8453    8.8159612    10.633823    10.586863    10.605538          108            0            0            0 
    5020    442.52069   -475.30454    1194.0053   -469.18411    540.25654    8.8156204    10.633897    10.587084    10.605653          108            0            0            0 
    5030    444.64612   -475.33419     1194.063   -469.18437    402.10429    8.8151944    10.634033    10.587349    10.605765          108            0            0            0 
    5040    427.68696   -475.09986    1194.1299   -469.18459    966.41122    8.8147002    10.634285    10.587613    10.605843          108            0            0            0 
    5050     407.9854   -474.82777    1194.2152   -469.18499    1570.5448    8.8140707      10.6347      10.5879    10.605901          108            0            0            0 
    5060    397.70643   -474.68624    1194.3289   -469.18563    1831.1294    8.8132317    10.635271    10.588255    10.605985          108            0            0            0 
    5070    391.66814   -474.60332    1194.4758   -469.18623    1908.7832    8.8121477     10.63596    10.588706     10.60615          108            0            0            0 
    5080    387.13642   -474.54112    1194.6574    -469.1867    1848.2078    8.8108079    10.636752    10.589248     10.60643          108            0            0            0 
    5090     392.7346   -474.61913    1194.8722   -469.18728    1349.6557    8.8092242    10.637662    10.589856    10.606821          108            0            0            0 
    5100    406.38167   -474.80858    1195.1114   -469.18798    574.04166    8.8074611    10.638696    10.590491    10.607277          108            0            0            0 
Setting up Verlet run ...
  Unit style    : metal
  Current step  : 5100
  Time step     : 0.001
Per MPI rank memory allocation (min/avg/max) = 5.152 | 5.152 | 5.152 Mbytes
Step Temp E_pair Volume TotEng Press Density Lx Ly Lz v_cNi v_cCo v_cFe v_cTi 
    5100    406.38167   -474.80858    1195.1114   -469.18798    574.04166    8.8074611    10.638696    10.590491    10.607277          108            0            0            0 
    5110    410.57875   -474.86715    1195.3624    -469.1885    223.84062    8.8056117    10.639821    10.591123     10.60775          108            0            0            0 
    5120    398.03458   -474.69396    1195.6197   -469.18881    584.05084     8.803717    10.640988    10.591763    10.608228          108            0            0            0 
    5130    383.04451   -474.48695    1195.8887   -469.18913    972.57429    8.8017366    10.642166    10.592458    10.608744          108            0            0            0 
    5140    381.35287   -474.46403    1196.1751    -469.1896    625.37976    8.7996291    10.643333    10.593242    10.609337          108            0            0            0 
    5150    389.31083   -474.57448    1196.4729   -469.18998   -293.45783    8.7974391    10.644447    10.594098     10.61001          108            0            0            0 
    5160    394.21583   -474.64238    1196.7667   -469.19005   -1141.1345    8.7952794    10.645447    10.594977    10.610738          108            0            0            0 
    5170    397.07294   -474.68176    1197.0416   -469.18991   -1779.6711    8.7932594    10.646277    10.595844     10.61148          108            0            0            0 
    5180     408.2321   -474.83606    1197.2856   -469.18987   -2537.7496     8.791467    10.646893    10.596692    10.612178          108            0            0            0 
    5190    425.35898   -475.07309    1197.4853   -469.19002   -3342.9646    8.7900014     10.64725    10.597523     10.61276          108            0            0            0 
    5200    432.11749   -475.16679    1197.6269   -469.19025   -3651.0502    8.7889616    10.647303    10.598318    10.613167          108            0            0            0 
Setting up Verlet run ...
  Unit style    : metal
  Current step  : 5200
  Time step     : 0.001
Per MPI rank memory allocation (min/avg/max) = 5.152 | 5.152 | 5.152 Mbytes
Step Temp E_pair Volume TotEng Press Density Lx Ly Lz v_cNi v_cCo v_cFe v_cTi 
    5200    432.11749   -475.16679    1197.6269   -469.19025   -3651.0502    8.7889616    10.647303    10.598318    10.613167          108            0            0            0 
    5210    423.39084   -475.04634    1197.7053   -469.19049   -3403.8985    8.7883865    10.647038    10.599046    10.613397          108            0            0            0 
    5220    414.85729   -474.92879    1197.7238   -469.19097   -3213.5982     8.788251    10.646486    10.599659    10.613497          108            0            0            0 
    5230    412.62126   -474.89866    1197.6853   -469.19176   -3219.0226     8.788533    10.645697    10.600084    10.613517          108            0            0            0 
    5240    401.39258   -474.74408    1197.5909   -469.19249   -2778.2045    8.7892261     10.64472    10.600256    10.613482          108            0            0            0 
    5250    378.62439   -474.42967    1197.4485   -469.19298   -1761.5143    8.7902709    10.643614    10.600163    10.613417          108            0            0            0 
    5260    364.09126   -474.22908    1197.2752   -469.19339   -896.50886    8.7915436    10.642465    10.599845    10.613344          108            0            0            0 
    5270    370.18726   -474.31386    1197.0852   -469.19386   -708.74609    8.7929387     10.64136    10.599347    10.613261          108            0            0            0 
    5280    387.46496    -474.5533    1196.8823   -469.19433   -898.34302    8.7944296    10.640346    10.598692    10.613128          108            0            0            0 
    5290    401.20789   -474.74373    1196.6637   -469.19469   -980.23736     8.796036    10.639415    10.597911    10.612901          108            0            0            0 
    5300     408.1557   -474.84018     1196.428   -469.19505   -954.19029    8.7977686    10.638526     10.59706     10.61255          108            0            0            0 
Setting up Verlet run ...
  Unit style    : metal
  Current step  : 5300
  Time step     : 0.001
Per MPI rank memory allocation (min/avg/max) = 5.152 | 5.152 | 5.152 Mbytes
Step Temp E_pair Volume TotEng Press Density Lx Ly Lz v_cNi v_cCo v_cFe v_cTi 
    5300     408.1557   -474.84018     1196.428   -469.19505   -954.19029    8.7977686    10.638526     10.59706     10.61255          108            0            0            0 
    5310    410.31455   -474.87047    1196.1756   -469.19548    -878.7515    8.7996251    10.637634      10.5962    10.612061          108            0            0            0 
    5320    406.99256   -474.82493    1195.9083   -469.19588   -552.48099    8.8015924    10.636711    10.595374    10.611437          108            0            0            0 
    5330    403.33019   -474.77459    1195.6316    -469.1962   -100.88425    8.8036294    10.635759    10.594588    10.610719          108            0            0            0 
    5340    408.28507   -474.84352    1195.3527    -469.1966    35.505754    8.8056829     10.63479    10.593806    10.609994          108            0            0            0 
    5350    419.15996    -474.9945    1195.0742   -469.19717   -124.64122    8.8077356    10.633808    10.592957    10.609352          108            0            0            0 
    5360    423.50484   -475.05524    1194.7939   -469.19782   -5.2912199    8.8098014    10.632811    10.591972    10.608845          108            0            0            0 
    5370    415.87936   -474.95026    1194.5146    -469.1983    644.16797    8.8118612    10.631818    10.590849     10.60848          108            0            0            0 
    5380    409.40439     -474.861     1194.247   -469.19859    1225.7992    8.8138362    10.630881    10.589662    10.608226          108            0            0            0 
    5390    419.41133   -474.99992    1194.0002   -469.19911    1164.0046    8.8156581    10.630042     10.58851    10.608025          108            0            0            0 
    5400    431.32525    -475.1654    1193.7741   -469.19981    1100.2559    8.8173275    10.629306    10.587443     10.60782          108            0            0            0 
Setting up Verlet run ...
  Unit style    : metal
  Current step  : 5400
  Time step     : 0.001
Per MPI rank memory allocation (min/avg/max) = 5.152 | 5.152 | 5.152 Mbytes
Step Temp E_pair Volume TotEng Press Density Lx Ly Lz v_cNi v_cCo v_cFe v_cTi 
    5400    431.32525   -475.65584    1193.7741   -469.69025    9572.2135    8.8022867    10.629306    10.587443     10.60782          107            0            0            1 
    5410    421.71281   -475.52285    1193.6446   -469.69021    10302.349    8.8032414    10.628885    10.586686    10.607848          107            0            0            1 
    5420     399.7008   -475.21946    1193.6994   -469.69127    11280.913    8.8028377    10.629029    10.586456    10.608422          107            0            0            1 
    5430    380.85746   -474.96142    1193.9553   -469.69385     11779.89    8.8009511    10.629781    10.586752    10.609649          107            0            0            1 
    5440     378.1085   -474.92762    1194.4209   -469.69807    11175.359      8.79752    10.631164    10.587569    10.611587          107            0            0            1 
    5450    389.67167   -475.09283    1195.0866   -469.70334    9613.4194    8.7926196    10.633165    10.588873    10.614195          107            0            0            1 
    5460     402.8946   -475.28098    1195.9265   -469.70861    7741.4468    8.7864442    10.635739    10.590618    10.617336          107            0            0            1 
    5470    412.06944   -475.41261     1196.909   -469.71335    5883.9949    8.7792319    10.638822    10.592759    10.620831          107            0            0            1 
    5480    422.62646   -475.56261    1198.0015   -469.71734    3895.7403    8.7712255    10.642326    10.595249    10.624528          107            0            0            1 
    5490    437.92246   -475.77714    1199.1692   -469.72031     1743.546    8.7626846    10.646138    10.597999    10.628318          107            0            0            1 
    5500     447.8929   -475.91679    1200.3747   -469.72205   -128.49281    8.7538847    10.650125    10.600873    10.632135          107            0            0            1 
Setting up Verlet run ...
  Unit style    : metal
  Current step  : 5500
  Time step     : 0.001
Per MPI rank memory allocation (min/avg/max) = 5.152 | 5.152 | 5.152 Mbytes
Step Temp E_pair Volume TotEng Press Density Lx Ly Lz v_cNi v_cCo v_cFe v_cTi 
    5500     447.8929   -475.91679    1200.3747   -469.72205   -128.49281    8.7538847    10.650125    10.600873    10.632135          107            0            0            1 
    5510    437.08559   -475.76799    1201.5856   -469.72273   -1197.7863    8.7450632    10.654162    10.603738    10.635954          107            0            0            1 
    5520    410.54636   -475.40095    1202.7825   -469.72275   -1690.8373    8.7363606    10.658153    10.606503    10.639787          107            0            0            1 
    5530    394.00622   -475.17186     1203.955   -469.72243   -2580.6647    8.7278527     10.66203    10.609122    10.643657          107            0            0            1 
    5540    400.94735   -475.26692    1205.0857   -469.72149   -4364.4861    8.7196638    10.665721    10.611544    10.647537          107            0            0            1 
    5550    416.72657    -475.4831    1206.1427   -469.71942   -6410.5069    8.7120217    10.669134    10.613692    10.651311          107            0            0            1 
    5560    422.43542   -475.55903    1207.0898    -469.7164   -7963.0161    8.7051864    10.672194     10.61549    10.654814          107            0            0            1 
    5570    419.52086   -475.51573     1207.898   -469.71341   -9021.5865     8.699362    10.674867    10.616872    10.657889          107            0            0            1 
    5580    415.79933   -475.46206    1208.5468   -469.71121   -9779.8685    8.6946919    10.677153    10.617767    10.660433          107            0            0            1 
    5590    408.82865    -475.3644    1209.0218   -469.70996   -10039.157     8.691276    10.679055    10.618091    10.662397          107            0            0            1 
    5600     396.0796   -475.18779    1209.3175   -469.70968   -9694.1267    8.6891503    10.680572    10.617807    10.663776          107            0            0            1 
Setting up Verlet run ...
  Unit style    : metal
  Current step  : 5600
  Time step     : 0.001
Per MPI rank memory allocation (min/avg/max) = 5.152 | 5.152 | 5.152 Mbytes
Step Temp E_pair Volume TotEng Press Density Lx Ly Lz v_cNi v_cCo v_cFe v_cTi 
    5600     396.0796   -475.18779    1209.3175   -469.70968   -9694.1267    8.6891503    10.680572    10.617807    10.663776          107            0            0            1 
    5610    385.67076   -475.04448    1209.4387   -469.71033   -9224.5455    8.6882795    10.681691    10.616953    10.664586          107            0            0            1 
    5620    386.66873   -475.05982    1209.3922   -469.71187   -9147.7702    8.6886138    10.682368    10.615624    10.664835          107            0            0            1 
    5630    395.41246   -475.18323    1209.1788   -469.71434   -9296.0672    8.6901472    10.682534    10.613894    10.664525          107            0            0            1 
    5640    400.11993   -475.25179    1208.7962   -469.71779   -9062.7086     8.692898    10.682138    10.611775    10.663673          107            0            0            1 
    5650    396.76404    -475.2095    1208.2484   -469.72192   -8245.4854    8.6968389    10.681198    10.609241    10.662326          107            0            0            1 
    5660    397.32267   -475.22186    1207.5491   -469.72656   -7354.2624    8.7018752    10.679792    10.606283     10.66053          107            0            0            1 
    5670    408.44534   -475.38084    1206.7134    -469.7317   -6742.9865    8.7079015    10.677998    10.602932     10.65831          107            0            0            1 
    5680    419.91098   -475.54472    1205.7526     -469.737   -6118.5249    8.7148403    10.675847    10.599245    10.655675          107            0            0            1 
    5690    425.22964   -475.62345    1204.6784   -469.74217   -5180.7198    8.7226118    10.673344     10.59529    10.652653          107            0            0            1 
    5700    426.73597   -475.64913    1203.5075   -469.74702   -3875.7366     8.731098     10.67051    10.591139    10.649297          107            0            0            1 
Setting up Verlet run ...
  Unit style    : metal
  Current step  : 5700
  Time step     : 0.001
Per MPI rank memory allocation (min/avg/max) = 5.152 | 5.152 | 5.152 Mbytes
Step Temp E_pair Volume TotEng Press Density Lx Ly Lz v_cNi v_cCo v_cFe v_cTi 
    5700    426.73597   -475.64913    1203.5075   -469.74702   -3875.7366     8.731098     10.67051    10.591139    10.649297          107            0            0            1 
    5710    423.55631   -475.60918    1202.2636   -469.75104   -2121.8443    8.7401313    10.667399    10.586874    10.645681          107            0            0            1 
    5720    411.41555    -475.4437    1200.9784   -469.75348    124.68087    8.7494841    10.664081    10.582605      10.6419          107            0            0            1 
    5730    396.64775   -475.23993    1199.6918   -469.75396    2525.2673    8.7588675     10.66065    10.578465    10.638082          107            0            0            1 
    5740    391.00317   -475.16072     1198.446   -469.75282    4598.1039    8.7679727    10.657212    10.574591    10.634358          107            0            0            1 
    5750    395.37371   -475.21899    1197.2777   -469.75064    6212.3446    8.7765281    10.653855    10.571103    10.630846          107            0            0            1 
    5760    402.31656   -475.31229    1196.2162   -469.74791    7527.6437    8.7843162    10.650658    10.568092    10.627637          107            0            0            1 
    5770    409.72395   -475.41196     1195.285   -469.74513    8504.5197    8.7911602    10.647696    10.565624    10.624798          107            0            0            1 
    5780    421.06842   -475.56664    1194.5013   -469.74291    9028.9076    8.7969276    10.645053    10.563736    10.622367          107            0            0            1 
    5790    431.21519   -475.70564    1193.8754   -469.74157    9379.3571    8.8015395    10.642812    10.562417    10.620362          107            0            0            1 
    5800    431.24559   -475.70547    1193.4146   -469.74099    9902.4725    8.8049382    10.641051    10.561633    10.618807          107            0            0            1 
Setting up Verlet run ...
  Unit style    : metal
  Current step  : 5800
  Time step     : 0.001
Per MPI rank memory allocation (min/avg/max) = 5.152 | 5.152 | 5.152 Mbytes
Step Temp E_pair Volume TotEng Press Density Lx Ly Lz v_cNi v_cCo v_cFe v_cTi 
    5800    431.24559   -475.52881    1193.4146   -469.56433    10716.937    8.8009782    10.641051    10.561633    10.618807          106            0            1            1 
    5810    425.66585    -475.4519    1193.1357   -469.56459     11193.91    8.8030355    10.639852     10.56138    10.617777          106            0            1            1 
    5820    424.14735   -475.43267    1193.0546   -469.56636    11224.845    8.8036339    10.639253    10.561682    10.617349          106            0            1            1 
    5830    426.83376   -475.47315     1193.173   -469.56968    10880.942    8.8027605    10.639232    10.562554    10.617547          106            0            1            1 
    5840    427.98481   -475.49385    1193.4864   -469.57447    10512.817    8.8004486     10.63976    10.564009    10.618346          106            0            1            1 
    5850    422.69707   -475.42681      1193.99   -469.58055    10254.374    8.7967371    10.640817    10.566063    10.619706          106            0            1            1 
    5860    407.24783   -475.22024    1194.6804   -469.58767      10020.1    8.7916535     10.64239    10.568722    10.621604          106            0            1            1 
    5870    389.10124   -474.97713    1195.5545   -469.59554    9422.3539    8.7852252    10.644467    10.571967    10.624039          106            0            1            1 
    5880      389.884   -474.99624    1196.6022   -469.60382    7761.6732    8.7775333    10.647005    10.575755    10.627007          106            0            1            1 
    5890    413.11013   -475.32537    1197.7952   -469.61171    5154.0518    8.7687909    10.649897        10.58    10.630446          106            0            1            1 
    5900    427.25493   -475.52748    1199.0903   -469.61819    2943.9665    8.7593203    10.652967    10.584597    10.634253          106            0            1            1 
Setting up Verlet run ...
  Unit style    : metal
  Current step  : 5900
  Time step     : 0.001
Per MPI rank memory allocation (min/avg/max) = 5.152 | 5.152 | 5.152 Mbytes
Step Temp E_pair Volume TotEng Press Density Lx Ly Lz v_cNi v_cCo v_cFe v_cTi 
    5900    427.25493   -475.52748    1199.0903   -469.61819    2943.9665    8.7593203    10.652967    10.584597    10.634253          106            0            1            1 
    5910    414.86104   -475.36121    1200.4502   -469.62333    1864.7938    8.7493973    10.656057    10.589467    10.638331          106            0            1            1 
    5920    397.56963   -475.12653    1201.8549   -469.62781    949.01567    8.7391715    10.659083    10.594583    10.642614          106            0            1            1 
    5930    400.03438   -475.16422    1203.2863   -469.63141   -870.35781    8.7287751    10.662015    10.599912    10.647004          106            0            1            1 
    5940    416.81705   -475.39814    1204.7122   -469.63321   -3334.7442    8.7184441    10.664811    10.605367    10.651345          106            0            1            1 
    5950    424.89611   -475.50963    1206.0893   -469.63296   -5405.4267    8.7084894    10.667405     10.61081    10.655458          106            0            1            1 
    5960    414.25623   -475.36091    1207.3804    -469.6314   -6599.6463     8.699177    10.669746     10.61611    10.659201          106            0            1            1 
    5970    395.73428   -475.10274    1208.5622    -469.6294   -7389.3599    8.6906703    10.671819    10.621165    10.662485          106            0            1            1 
    5980    385.80849   -474.96332    1209.6182   -469.62727   -8465.3563    8.6830839    10.673625    10.625893    10.665247          106            0            1            1 
    5990    389.68585   -475.01491    1210.5268   -469.62523   -10020.647    8.6765662    10.675143    10.630202    10.667415          106            0            1            1 
    6000    399.78092   -475.15279    1211.2589   -469.62348   -11621.958    8.6713219    10.676325    10.633991    10.668882          106            0            1            1 
Setting up Verlet run ...
  Unit style    : metal
  Current step  : 6000
  Time step     : 0.001
Per MPI rank memory allocation (min/avg/max) = 5.152 | 5.152 | 5.152 Mbytes
Step Temp E_pair Volume TotEng Press Density Lx Ly Lz v_cNi v_cCo v_cFe v_cTi 
    6000    399.78092   -475.15279    1211.2589   -469.62348   -11621.958    8.6713219    10.676325    10.633991    10.668882          106            0            1            1 
    6010    408.78088   -475.27662    1211.7843   -469.62284   -12848.527    8.6675624    10.677113    10.637166    10.669536          106            0            1            1 
    6020    414.09303   -475.35132    1212.0789   -469.62406     -13554.2    8.6654557    10.677439    10.639659    10.669303          106            0            1            1 
    6030    412.15921    -475.3279    1212.1284    -469.6274   -13581.927    8.6651016    10.677228    10.641435     10.66817          106            0            1            1 
    6040    407.13891   -475.26389    1211.9307   -469.63282    -13031.95    8.6665155    10.676411    10.642506    10.666172          106            0            1            1 
    6050    408.17411    -475.2858    1211.4934   -469.64041   -12355.818    8.6696434    10.674941     10.64294    10.663357          106            0            1            1 
    6060    413.64095   -475.37084    1210.8275   -469.64984   -11646.457    8.6744113    10.672775    10.642826    10.659773          106            0            1            1 
    6070    409.63965   -475.32604    1209.9459   -469.66038   -10286.193    8.6807318    10.669886    10.642237    10.655486          106            0            1            1 
    6080    389.73771   -475.06091    1208.8732   -469.67051   -7941.5951    8.6884345     10.66631    10.641222    10.650624          106            0            1            1 
    6090    365.51286   -474.73428    1207.6507   -469.67893   -5247.8157    8.6972302     10.66217    10.639832    10.645375          106            0            1            1 
    6100    356.34167   -474.61391    1206.3252   -469.68541   -3159.4278    8.7067864    10.657639    10.638131    10.639912          106            0            1            1 
Setting up Verlet run ...
  Unit style    : metal
  Current step  : 6100
  Time step     : 0.001
Per MPI rank memory allocation (min/avg/max) = 5.152 | 5.152 | 5.152 Mbytes
Step Temp E_pair Volume TotEng Press Density Lx Ly Lz v_cNi v_cCo v_cFe v_cTi 
    6100    356.34167   -474.61391    1206.3252   -469.68541   -3159.4278    8.7067864    10.657639    10.638131    10.639912          106            0            1            1 
    6110    373.60478   -474.85815    1204.9333   -469.69088   -2206.2134     8.716844    10.652867    10.636195    10.634333          106            0            1            1 
    6120    408.92509   -475.35221    1203.4925   -469.69643   -2025.4026      8.72728    10.647938    10.634069    10.628657          106            0            1            1 
    6130    439.48747    -475.7806    1202.0074   -469.70212   -1551.1319    8.7380623    10.642883    10.631758    10.622892          106            0            1            1 
    6140     445.2367   -475.86485    1200.4882   -469.70685    122.21068    8.7491201    10.637738    10.629256    10.617097          106            0            1            1 
    6150    427.55016   -475.62258     1198.965   -469.70921    2853.3901    8.7602358    10.632601    10.626607    10.611391          106            0            1            1 
    6160    410.19693   -475.38247    1197.4849    -469.7091    5517.0371    8.7710635    10.627639    10.623926    10.605916          106            0            1            1 
    6170    409.67948   -475.37383    1196.0945   -469.70762    7372.5757    8.7812595     10.62303    10.621353    10.600765          106            0            1            1 
    6180    419.89037   -475.51327    1194.8273   -469.70583    8635.9585    8.7905724    10.618925    10.619003    10.595973          106            0            1            1 
    6190    426.32254   -475.60063    1193.7071   -469.70423    9888.1186     8.798822    10.615435    10.616961    10.591556          106            0            1            1 
    6200    417.54292   -475.47782    1192.7574   -469.70286    11610.986    8.8058278    10.612635    10.615293    10.587584          106            0            1            1 
Setting up Verlet run ...
  Unit style    : metal
  Current step  : 6200
  Time step     : 0.001
Per MPI rank memory allocation (min/avg/max) = 5.152 | 5.152 | 5.152 Mbytes
Step Temp E_pair Volume TotEng Press Density Lx Ly Lz v_cNi v_cCo v_cFe v_cTi 
    6200    417.54292   -475.47782    1192.7574   -469.70286    11610.986    8.8058278    10.612635    10.615293    10.587584          106            0            1            1 
    6210    393.55101   -475.14477    1192.0096   -469.70163    13766.254    8.8113519    10.610584    10.614083    10.584198          106            0            1            1 
    6220    371.58835   -474.84074    1191.5018   -469.70136    15575.515    8.8151069    10.609345    10.613436    10.581571          106            0            1            1 
    6230    371.62637   -474.84333    1191.2659   -469.70342    16104.793    8.8168529    10.608971    10.613451    10.579833          106            0            1            1 
    6240    395.60744   -475.18034    1191.3124   -469.70876    15189.474    8.8165083    10.609484     10.61417    10.579018          106            0            1            1 
    6250    425.92336   -475.60784    1191.6283   -469.71697    13486.335    8.8141709    10.610848    10.615574    10.579064          106            0            1            1 
    6260    444.80134   -475.87915    1192.1869   -469.72718    11735.356    8.8100412    10.612983    10.617616    10.579859          106            0            1            1 
    6270    447.84711   -475.93276      1192.96   -469.73866    10246.103    8.8043318    10.615796    10.620239      10.5813          106            0            1            1 
    6280    437.37963   -475.80018    1193.9237   -469.75085    9099.7723    8.7972256    10.619212     10.62338    10.583311          106            0            1            1 
    6290    417.30042   -475.53504    1195.0598   -469.76342    8364.2111    8.7888622    10.623184     10.62698    10.585834          106            0            1            1 
    6300    391.22918   -475.18726    1196.3572   -469.77623    7935.4687     8.779331    10.627688    10.630997    10.588832          106            0            1            1 
Setting up Verlet run ...
  Unit style    : metal
  Current step  : 6300
  Time step     : 0.001
Per MPI rank memory allocation (min/avg/max) = 5.152 | 5.152 | 5.152 Mbytes
Step Temp E_pair Volume TotEng Press Density Lx Ly Lz v_cNi v_cCo v_cFe v_cTi 
    6300    391.22918   -475.18726    1196.3572   -469.77623    7935.4687     8.779331    10.627688    10.630997    10.588832          106            0            1            1 
    6310    366.31502   -474.85534    1197.8094   -469.78889    7286.9123    8.7686874    10.632692    10.635419     10.59229          106            0            1            1 
    6320    357.92276   -474.75118    1199.4052    -469.8008    5559.9916    8.7570204    10.638114    10.640237    10.596196          106            0            1            1 
    6330    377.65216   -475.03403    1201.1144   -469.81079     2241.402    8.7445589    10.643807    10.645394    10.600483          106            0            1            1 
    6340    413.50902   -475.53652    1202.8794   -469.81734   -1984.1102    8.7317283    10.649562    10.650731    10.605006          106            0            1            1 
    6350    435.51145   -475.84346    1204.6265   -469.81998   -5663.5003    8.7190646    10.655178    10.655984    10.609579          106            0            1            1 
    6360    431.30713   -475.78519      1206.29   -469.81985   -8046.1708    8.7070406    10.660521    10.660875    10.614033          106            0            1            1 
    6370    416.20249   -475.57505    1207.8248   -469.81862   -9581.5372    8.6959765    10.665521      10.6652    10.618247          106            0            1            1 
    6380    407.31452   -475.45075    1209.2001   -469.81725   -10877.752    8.6860857    10.670121    10.668849    10.622121          106            0            1            1 
    6390    404.98769   -475.41768    1210.3902   -469.81636   -11915.184    8.6775453    10.674244    10.671774    10.625556          106            0            1            1 
    6400    398.40035   -475.32675    1211.3744   -469.81654   -12292.036     8.670495    10.677799    10.673968    10.628471          106            0            1            1 
Setting up Verlet run ...
  Unit style    : metal
  Current step  : 6400
  Time step     : 0.001
Per MPI rank memory allocation (min/avg/max) = 5.152 | 5.152 | 5.152 Mbytes
Step Temp E_pair Volume TotEng Press Density Lx Ly Lz v_cNi v_cCo v_cFe v_cTi 
    6400    398.40035   -475.32675    1211.3744   -469.81654   -12292.036     8.670495    10.677799    10.673968    10.628471          106            0            1            1 
    6410    376.33825    -475.0231     1212.144   -469.81803   -11777.097    8.6649905    10.680718    10.675458    10.630831          106            0            1            1 
    6420     343.2093   -474.56747    1212.7057    -469.8206   -10748.821    8.6609771    10.682991    10.676307    10.632649          106            0            1            1 
    6430    327.39524   -474.35241    1213.0743   -469.82426   -10478.486    8.6583454    10.684657    10.676578    10.633952          106            0            1            1 
    6440     351.4729    -474.6907     1213.251   -469.82953    -11927.93     8.657084    10.685744    10.676266    10.634731          106            0            1            1 
    6450    401.86597   -475.39561    1213.2081   -469.83747   -14525.136    8.6573904    10.686194    10.675261    10.634907          106            0            1            1 
    6460    441.00021   -475.94841    1212.8985   -469.84901   -16518.542    8.6595998    10.685873    10.673409    10.634359          106            0            1            1 
    6470    445.12667   -476.02078    1212.2863    -469.8643   -16486.698    8.6639727    10.684664    10.670598    10.632995          106            0            1            1 
    6480    424.11327    -475.7479    1211.3702   -469.88206   -14543.167    8.6705253    10.682558    10.666826    10.630811          106            0            1            1 
    6490     401.1666   -475.44901    1210.1823   -469.90054   -11780.334    8.6790361    10.679662    10.662187    10.627888          106            0            1            1 
    6500    387.81232   -475.28209    1208.7703   -469.91832   -9180.6974    8.6891743    10.676124    10.656816    10.624358          106            0            1            1 
Setting up Verlet run ...
  Unit style    : metal
  Current step  : 6500
  Time step     : 0.001
Per MPI rank memory allocation (min/avg/max) = 5.152 | 5.152 | 5.152 Mbytes
Step Temp E_pair Volume TotEng Press Density Lx Ly Lz v_cNi v_cCo v_cFe v_cTi 
    6500    387.81232   -475.28209    1208.7703   -469.91832   -9180.6974    8.6891743    10.676124    10.656816    10.624358          106            0            1            1 
    6510    384.37098   -475.25118    1207.1802     -469.935   -7024.8345    8.7006198    10.672065    10.650828    10.620385          106            0            1            1 
    6520     386.4537   -475.29545    1205.4509   -469.95047   -5045.5483    8.7131013    10.667573    10.644299    10.616144          106            0            1            1 
    6530    387.58261   -475.32491    1203.6186   -469.96432    -2785.318    8.7263652    10.662732    10.637304    10.611795          106            0            1            1 
    6540    383.22217    -475.2756    1201.7245   -469.97531    18.433663    8.7401199    10.657639    10.629966    10.607475          106            0            1            1 
    6550    373.97497   -475.15494    1199.8186   -469.98255    3171.7258    8.7540033     10.65242    10.622474    10.603314          106            0            1            1 
    6560    366.84083   -475.05966    1197.9568   -469.98594    6087.5883    8.7676079    10.647227     10.61504    10.599443          106            0            1            1 
    6570    376.03304   -475.18779    1196.1904   -469.98694    8077.1338    8.7805551    10.642225    10.607835     10.59598          106            0            1            1 
    6580    408.34447   -475.63579    1194.5545   -469.98805     8872.349    8.7925798    10.637549    10.600958    10.593007          106            0            1            1 
    6590     444.6314   -476.14029    1193.0648   -469.99066    9226.7521    8.8035589    10.633281    10.594444    10.590551          106            0            1            1 
    6600    455.51455   -476.29435    1191.7301    -469.9942    10427.552    8.8134181    10.629487    10.588318    10.588602          106            0            1            1 
Setting up Verlet run ...
  Unit style    : metal
  Current step  : 6600
  Time step     : 0.001
Per MPI rank memory allocation (min/avg/max) = 5.152 | 5.152 | 5.152 Mbytes
Step Temp E_pair Volume TotEng Press Density Lx Ly Lz v_cNi v_cCo v_cFe v_cTi 
    6600    455.51455   -476.31053    1191.7301   -470.01039    10396.246    8.8134181    10.629487    10.588318    10.588602          106            0            1            1 
    6610    432.05368   -475.98914    1190.5735   -470.01348    13017.165    8.8219801    10.626259    10.582667     10.58719          106            0            1            1 
    6620    392.71727   -475.44718    1189.6409   -470.01558    16217.857    8.8288964    10.623725    10.577661    10.586426          106            0            1            1 
    6630    367.78879   -475.10514    1188.9875   -470.01831    18419.145    8.8337478    10.622021    10.573501    10.586474          106            0            1            1 
    6640    371.68821   -475.16497    1188.6527   -470.02422     18831.68    8.8362361    10.621224    10.570342    10.587449          106            0            1            1 
    6650    387.46472   -475.39321    1188.6471   -470.03424    18214.337    8.8362779    10.621338    10.568265    10.589367          106            0            1            1 
    6660    392.53625   -475.47716    1188.9642   -470.04805    17566.153    8.8339209    10.622322    10.567289     10.59219          106            0            1            1 
    6670     389.1595   -475.44775    1189.5958   -470.06535    16766.623     8.829231    10.624141    10.567392    10.595897          106            0            1            1 
    6680    393.28089   -475.52516      1190.53   -470.08575    15129.722    8.8223027    10.626762    10.568498    10.600494          106            0            1            1 
    6690    409.15835   -475.76712    1191.7411   -470.10812    12489.003     8.813337    10.630115    10.570469    10.605952          106            0            1            1 
    6700    425.04201   -476.00942    1193.1866   -470.13073    9441.9796    8.8026602    10.634078    10.573145    10.612173          106            0            1            1 
Setting up Verlet run ...
  Unit style    : metal
  Current step  : 6700
  Time step     : 0.001
Per MPI rank memory allocation (min/avg/max) = 5.152 | 5.152 | 5.152 Mbytes
Step Temp E_pair Volume TotEng Press Density Lx Ly Lz v_cNi v_cCo v_cFe v_cTi 
    6700    425.04201   -476.00942    1193.1866   -470.13073    9441.9796    8.8026602    10.634078    10.573145    10.612173          106            0            1            1 
    6710    425.11207   -476.03182    1194.8168   -470.15216    6910.5867    8.7906498    10.638493    10.576386    10.619008          106            0            1            1 
    6720     402.1588   -475.73396    1196.5901   -470.17176     5397.762    8.7776224    10.643217    10.580103    10.626313          106            0            1            1 
    6730    366.01709   -475.25164    1198.4808   -470.18932    4411.0843     8.763775    10.648167    10.584256    10.633981          106            0            1            1 
    6740    343.10564   -474.95009    1200.4708   -470.20466    2744.6648    8.7492471    10.653302    10.588816     10.64192          106            0            1            1 
    6750    353.65241   -475.10841    1202.5298    -470.2171    -443.2096    8.7342666    10.658559    10.593699    10.650003          106            0            1            1 
    6760    384.88212   -475.54893    1204.6014   -470.22568   -4619.2257    8.7192459    10.663809    10.598728    10.658038          106            0            1            1 
    6770    405.71225    -475.8414    1206.6118   -470.23006   -8412.6221    8.7047181    10.668866    10.603663      10.6658          106            0            1            1 
    6780    406.02822   -475.84728    1208.4921   -470.23157   -11072.764    8.6911744    10.673544    10.608272    10.673099          106            0            1            1 
    6790    395.77898   -475.70604    1210.1914   -470.23209   -12726.857    8.6789706    10.677688    10.612396    10.679807          106            0            1            1 
    6800    379.95689    -475.4878    1211.6763   -470.23268   -13690.255    8.6683346    10.681177    10.615947    10.685842          106            0            1            1 
Setting up Verlet run ...
  Unit style    : metal
  Current step  : 6800
  Time step     : 0.001
Per MPI rank memory allocation (min/avg/max) = 5.152 | 5.152 | 5.152 Mbytes
Step Temp E_pair Volume TotEng Press Density Lx Ly Lz v_cNi v_cCo v_cFe v_cTi 
    6800    379.95689    -475.4878    1211.6763   -470.23268   -13690.255    8.6683346    10.681177    10.615947    10.685842          106            0            1            1 
    6810    365.75386    -475.2927    1212.9252   -470.23402   -14576.242    8.6594094     10.68392    10.618897    10.691139          106            0            1            1 
    6820    367.84665   -475.32445    1213.9174   -470.23682   -16098.036    8.6523317    10.685841    10.621221    10.695621          106            0            1            1 
    6830    390.40384    -475.6419    1214.6217   -470.24229    -18178.58    8.6473146    10.686847    10.622848    10.699179          106            0            1            1 
    6840    415.19708    -475.9945    1214.9982   -470.25198    -19709.82    8.6446352    10.686822    10.623667    10.701696          106            0            1            1 
    6850     415.3162   -476.01064    1215.0175   -470.26647   -19414.945    8.6444979    10.685669    10.623594    10.703094          106            0            1            1 
    6860    381.52997    -475.5612    1214.6824   -470.28432   -17164.386    8.6468824    10.683395    10.622637    10.703384          106            0            1            1 
    6870    334.47918   -474.92908    1214.0301   -470.30295   -14130.711    8.6515281    10.680133    10.620907    10.702647          106            0            1            1 
    6880     310.0104   -474.60898    1213.1117   -470.32128   -11948.446     8.658078    10.676082     10.61855    10.700983          106            0            1            1 
    6890    326.90811   -474.86207     1211.964   -470.34066   -11386.337    8.6662768    10.671383    10.615673    10.698465          106            0            1            1 
    6900    367.57048   -475.44673    1210.5971   -470.36292   -11685.196    8.6760626     10.66606    10.612306    10.695124          106            0            1            1 
Setting up Verlet run ...
  Unit style    : metal
  Current step  : 6900
  Time step     : 0.001
Per MPI rank memory allocation (min/avg/max) = 5.152 | 5.152 | 5.152 Mbytes
Step Temp E_pair Volume TotEng Press Density Lx Ly Lz v_cNi v_cCo v_cFe v_cTi 
    6900    367.57048   -475.44673    1210.5971   -470.36292   -11685.196    8.6760626     10.66606    10.612306    10.695124          106            0            1            1 
    6910    397.28123   -475.88288    1209.0067   -470.38815   -11376.884    8.6874754     10.66007    10.608436    10.690974          106            0            1            1 
    6920    401.02822   -475.96087    1207.1991   -470.41431   -9740.3551    8.7004833    10.653406    10.604081    10.686056          106            0            1            1 
    6930     391.5208     -475.854    1205.2032   -470.43894   -7164.8344    8.7148924    10.646151     10.59931    10.680462          106            0            1            1 
    6940    386.54446   -475.80675    1203.0642   -470.46052   -4298.8693    8.7303871    10.638459    10.594235    10.674326          106            0            1            1 
    6950    389.71297   -475.86856    1200.8333   -470.47851   -1412.5567     8.746606    10.630498    10.588991    10.667792          106            0            1            1 
    6960    394.11605   -475.94365    1198.5627    -470.4927     1590.513    8.7631759    10.622436    10.583729       10.661          106            0            1            1 
    6970    390.96812   -475.90997    1196.3068   -470.50255    4972.9378    8.7797012    10.614451    10.578614    10.654087          106            0            1            1 
    6980    373.73959   -475.67625    1194.1264   -470.50712    8842.9287     8.795732    10.606753    10.573815    10.647217          106            0            1            1 
    6990    350.33506   -475.35173    1192.0901    -470.5063    12653.248    8.8107567    10.599578    10.569504    10.640594          106            0            1            1 
    7000    344.66493   -475.26957     1190.264   -470.50256    15284.147    8.8242744    10.593124    10.565856    10.634438          106            0            1            1 
Setting up Verlet run ...
  Unit style    : metal
  Current step  : 7000
  Time step     : 0.001
Per MPI rank memory allocation (min/avg/max) = 5.152 | 5.152 | 5.152 Mbytes
Step Temp E_pair Volume TotEng Press Density Lx Ly Lz v_cNi v_cCo v_cFe v_cTi 
    7000    344.66493   -475.26957     1190.264   -470.50256    15284.147    8.8242744    10.593124    10.565856    10.634438          106            0            1            1 
    7010    369.43881   -475.60971     1188.694   -470.50006    16249.266    8.8359289    10.587482    10.563009    10.628935          106            0            1            1 
    7020    403.34307   -476.07996    1187.3994   -470.50139    16500.436    8.8455627     10.58263    10.561059    10.624187          106            0            1            1 
    7030    410.99325   -476.19043    1186.3879   -470.50605    17469.089     8.853104    10.578527    10.560084    10.620236          106            0            1            1 
    7040    387.64634   -475.87415    1185.6787   -470.51268     19338.48    8.8583995    10.575227    10.560182    10.617101          106            0            1            1 
    7050      366.996   -475.59762    1185.3044   -470.52176    20758.105    8.8611971    10.572896    10.561447    10.614817          106            0            1            1 
    7060    376.62315    -475.7442    1185.2902   -470.53519    20537.569    8.8613033    10.571705    10.563905    10.613416          106            0            1            1 
    7070    403.53599   -476.13506    1185.6357   -470.55382    19134.588    8.8587212    10.571718    10.567493    10.612891          106            0            1            1 
    7080    415.10564   -476.31779    1186.3217   -470.57653    17848.909    8.8535984    10.572895    10.572116    10.613206          106            0            1            1 
    7090    398.58303    -476.1148    1187.3302   -470.60206    17121.471    8.8460786     10.57517    10.577709    10.614329          106            0            1            1 
    7100    369.74854   -475.74343    1188.6512    -470.6295    16315.461    8.8362469    10.578485    10.584239    10.616255          106            0            1            1 
Setting up Verlet run ...
  Unit style    : metal
  Current step  : 7100
  Time step     : 0.001
Per MPI rank memory allocation (min/avg/max) = 5.152 | 5.152 | 5.152 Mbytes
Step Temp E_pair Volume TotEng Press Density Lx Ly Lz v_cNi v_cCo v_cFe v_cTi 
    7100    369.74854   -475.74343    1188.6512    -470.6295    16315.461    8.8362469    10.578485    10.584239    10.616255          106            0            1            1 
    7110    349.33385   -475.48938    1190.2734    -470.6578    14601.898    8.8242047    10.582782    10.591659    10.618982          106            0            1            1 
    7120    345.77121   -475.46769    1192.1696   -470.68539    11710.141     8.810169    10.587964    10.599865    10.622464          106            0            1            1 
    7130     358.6744   -475.67115    1194.2926   -470.71038    7939.2928    8.7945078    10.593886    10.608694     10.62658          106            0            1            1 
    7140     379.0168   -475.97342    1196.5789    -470.7313    3859.1458    8.7777041    10.600357    10.617953    10.631146          106            0            1            1 
    7150    391.35199   -476.15998    1198.9587   -470.74726    167.15215    8.7602816     10.60718    10.627431    10.635943          106            0            1            1 
    7160    387.63939   -476.11969    1201.3672   -470.75831   -2799.0324    8.7427192    10.614184    10.636942    10.640752          106            0            1            1 
    7170    375.24828   -475.95515    1203.7504   -470.76516   -5371.4339    8.7254104    10.621229    10.646349    10.645376          106            0            1            1 
    7180    366.92246   -475.84323      1206.06   -470.76838   -8046.0074    8.7087012    10.628162    10.655553    10.649636          106            0            1            1 
    7190    365.82797   -475.82812    1208.2457   -470.76841   -10831.438    8.6929471    10.634799    10.664462     10.65337          106            0            1            1 
    7200    362.90902   -475.78525    1210.2552   -470.76591   -13222.007    8.6785133    10.640933    10.672965    10.656441          106            0            1            1 
Setting up Verlet run ...
  Unit style    : metal
  Current step  : 7200
  Time step     : 0.001
Per MPI rank memory allocation (min/avg/max) = 5.152 | 5.152 | 5.152 Mbytes
Step Temp E_pair Volume TotEng Press Density Lx Ly Lz v_cNi v_cCo v_cFe v_cTi 
    7200    362.90902   -475.78525    1210.2552   -470.76591   -13222.007    8.6785133    10.640933    10.672965    10.656441          106            0            1            1 
    7210    350.18951   -475.60539    1212.0426   -470.76197   -14834.285    8.6657148    10.646385    10.680931    10.658758          106            0            1            1 
    7220     334.8077   -475.38842    1213.5748   -470.75775   -15993.576    8.6547745    10.651045    10.688213    10.660295          106            0            1            1 
    7230    333.19645   -475.36261    1214.8255   -470.75423   -17490.832    8.6458637    10.654857    10.694645    10.661048          106            0            1            1 
    7240    349.55038   -475.58724    1215.7634   -470.75267    -19566.72    8.6391943    10.657781    10.700024    10.660989          106            0            1            1 
    7250    369.32923   -475.86279    1216.3478   -470.75466   -21419.125    8.6350431    10.659761    10.704141    10.660032          106            0            1            1 
    7260    375.29582   -475.95241    1216.5429   -470.76175   -22110.266    8.6336584    10.660746    10.706837    10.658072          106            0            1            1 
    7270     365.1992   -475.82517    1216.3331   -470.77416    -21494.61    8.6351475    10.660717    10.708056     10.65505          106            0            1            1 
    7280    353.69323   -475.68306    1215.7261   -470.79119   -20263.948     8.639459    10.659687    10.707826     10.65099          106            0            1            1 
    7290    354.50143   -475.71517    1214.7412   -470.81212   -19078.993    8.6464637    10.657674    10.706201    10.645987          106            0            1            1 
    7300      364.221   -475.87403    1213.3988   -470.83655   -17792.404    8.6560294    10.654698    10.703217    10.640159          106            0            1            1 
Setting up Verlet run ...
  Unit style    : metal
  Current step  : 7300
  Time step     : 0.001
Per MPI rank memory allocation (min/avg/max) = 5.152 | 5.152 | 5.152 Mbytes
Step Temp E_pair Volume TotEng Press Density Lx Ly Lz v_cNi v_cCo v_cFe v_cTi 
    7300      364.221   -475.87403    1213.3988   -470.83655   -17792.404    8.6560294    10.654698    10.703217    10.640159          106            0            1            1 
    7310    368.23307   -475.95624    1211.7225   -470.86327   -15774.755    8.6680043     10.65081    10.698912    10.633615          106            0            1            1 
    7320    358.84729   -475.85316    1209.7493      -470.89   -12745.488    8.6821427    10.646123    10.693391    10.626456          106            0            1            1 
    7330    343.66185   -475.66707    1207.5337   -470.91394   -9128.2108    8.6980727    10.640808    10.686854    10.618784          106            0            1            1 
    7340    334.20523   -475.55569    1205.1409   -470.93336   -5481.3992    8.7153425    10.635056     10.67956    10.610716          106            0            1            1 
    7350    334.45686   -475.57339    1202.6368   -470.94757   -2126.4287    8.7334895    10.629051    10.671766    10.602388          106            0            1            1 
    7360    344.32205   -475.71904    1200.0821   -470.95678    827.29307    8.7520814    10.622965    10.663685     10.59395          106            0            1            1 
    7370    362.98522   -475.98229      1197.53    -470.9619    3385.3588    8.7707327    10.616948    10.655476    10.585561          106            0            1            1 
    7380     384.9713   -476.28811     1195.027   -470.96363    5678.3003    8.7891036    10.611131     10.64726    10.577381          106            0            1            1 
    7390    403.04748   -476.53705    1192.6143   -470.96257    7918.1838    8.8068844    10.605623    10.639148    10.569561          106            0            1            1 
    7400    413.04112   -476.67175    1190.3322   -470.95905    10371.749    8.8237683     10.60053    10.631252    10.562245          106            0            1            1 
Setting up Verlet run ...
  Unit style    : metal
  Current step  : 7400
  Time step     : 0.001
Per MPI rank memory allocation (min/avg/max) = 5.152 | 5.152 | 5.152 Mbytes
Step Temp E_pair Volume TotEng Press Density Lx Ly Lz v_cNi v_cCo v_cFe v_cTi 
    7400    413.04112   -476.67175    1190.3322   -470.95905    10371.749    8.8237683     10.60053    10.631252    10.562245          106            0            1            1 
    7410    407.95605   -476.59546     1188.225   -470.95309    13406.523    8.8394167    10.595983    10.623693    10.555576          106            0            1            1 
    7420    380.29022   -476.20418    1186.3466   -470.94444    17171.436    8.8534129    10.592152    10.616617    10.549727          106            0            1            1 
    7430    339.41638   -475.62822    1184.7623   -470.93381    21047.273    8.8652514    10.589236    10.610201    10.544913          106            0            1            1 
    7440    311.95084   -475.23851    1183.5386   -470.92397     23830.73    8.8744174    10.587423    10.604636    10.541354          106            0            1            1 
    7450    316.12618   -475.29086    1182.7235   -470.91857    24795.612    8.8805335    10.586829    10.600079    10.539215          106            0            1            1 
    7460    340.91925   -475.63489    1182.3357   -470.91969    24430.799    8.8834462    10.587469    10.596617    10.538564          106            0            1            1 
    7470    364.72448   -475.97169    1182.3721   -470.92724    23535.805    8.8831727    10.589302    10.594294    10.539375          106            0            1            1 
    7480    384.30164   -476.25581    1182.8199    -470.9406     22148.31      8.87981    10.592282    10.593133    10.541554          106            0            1            1 
    7490     404.7051   -476.55631    1183.6577    -470.9589    20100.948    8.8735251     10.59635    10.593123    10.544981          106            0            1            1 
    7500    416.55491     -476.742    1184.8539    -470.9807    17849.238    8.8645666    10.601409    10.594179    10.549549          106            0            1            1 
Setting up Verlet run ...
  Unit style    : metal
  Current step  : 7500
  Time step     : 0.001
Per MPI rank memory allocation (min/avg/max) = 5.152 | 5.152 | 5.152 Mbytes
Step Temp E_pair Volume TotEng Press Density Lx Ly Lz v_cNi v_cCo v_cFe v_cTi 
    7500    416.55491     -476.742    1184.8539    -470.9807    17849.238    8.8645666    10.601409    10.594179    10.549549          106            0            1            1 
    7510     404.5472   -476.59966    1186.3739   -471.00444    16111.751    8.8532087    10.607342    10.596165    10.555197          106            0            1            1 
    7520    373.09173   -476.18954     1188.191   -471.02937    14863.074    8.8396695    10.614059    10.598948    10.561899          106            0            1            1 
    7530    342.82197   -475.79627    1190.2854   -471.05475    13316.755    8.8241154    10.621515    10.602431    10.569616          106            0            1            1 
    7540    328.52438   -475.62256    1192.6317   -471.07879    10713.251    8.8067553    10.629657     10.60654    10.578239          106            0            1            1 
    7550    332.97282     -475.704    1195.1864   -471.09871    6902.7633    8.7879314    10.638373    10.611182    10.587579          106            0            1            1 
    7560    349.95804   -475.95231    1197.8841    -471.1121    2313.9297    8.7681401    10.647466    10.616208    10.597395          106            0            1            1 
    7570    366.48713   -476.18656    1200.6453   -471.11774    -2252.111    8.7479758    10.656684     10.62141    10.607437          106            0            1            1 
    7580    369.72012   -476.22968    1203.3889   -471.11614   -6136.8347    8.7280313    10.665774     10.62654    10.617487          106            0            1            1 
    7590    360.14353   -476.09002    1206.0439   -471.10893   -9304.0164    8.7088172    10.674528    10.631365    10.627361          106            0            1            1 
    7600    350.93815    -475.9513    1208.5502   -471.09754   -12209.373    8.6907565    10.682774    10.635696    10.636892          106            0            1            1 
Setting up Verlet run ...
  Unit style    : metal
  Current step  : 7600
  Time step     : 0.001
Per MPI rank memory allocation (min/avg/max) = 5.152 | 5.152 | 5.152 Mbytes
Step Temp E_pair Volume TotEng Press Density Lx Ly Lz v_cNi v_cCo v_cFe v_cTi 
    7600    350.93815    -475.9513    1208.5502   -471.09754   -12209.373    8.6907565    10.682774    10.635696    10.636892          106            0            1            1 
    7610     350.5371   -475.93126    1210.8518   -471.08304   -15180.089    8.6742374    10.690354    10.639383    10.645902          106            0            1            1 
    7620    354.71503   -475.97271    1212.8913   -471.06671   -18027.428    8.6596512    10.697099    10.642292    10.654196          106            0            1            1 
    7630    355.02017   -475.96077    1214.6141   -471.05054   -20241.629    8.6473688    10.702859    10.644292    10.661584          106            0            1            1 
    7640    346.55138   -475.82999    1215.9764    -471.0369   -21459.435    8.6376807    10.707517    10.645273    10.667916          106            0            1            1 
    7650    333.14393   -475.63501    1216.9522   -471.02735   -21862.301    8.6307549    10.710989    10.645172    10.673117          106            0            1            1 
    7660    324.59454   -475.51227    1217.5299   -471.02286   -22025.131    8.6266596    10.713212    10.643973    10.677171          106            0            1            1 
    7670    326.56756   -475.54027    1217.7032   -471.02356    -22348.84    8.6254319    10.714127    10.641686    10.680073          106            0            1            1 
    7680     337.9933   -475.70467    1217.4639   -471.02994   -22769.478    8.6271273    10.713679    10.638311    10.681807          106            0            1            1 
    7690    351.60346   -475.90552    1216.8033   -471.04255   -22827.776    8.6318111    10.711834     10.63382    10.682361          106            0            1            1 
    7700    357.40073   -476.00428    1215.7201   -471.06112    -21946.63    8.6395018    10.708597     10.62817    10.681753          106            0            1            1 
Setting up Verlet run ...
  Unit style    : metal
  Current step  : 7700
  Time step     : 0.001
Per MPI rank memory allocation (min/avg/max) = 5.152 | 5.152 | 5.152 Mbytes
Step Temp E_pair Volume TotEng Press Density Lx Ly Lz v_cNi v_cCo v_cFe v_cTi 
    7700    357.40073   -476.00428    1215.7201   -471.06112    -21946.63    8.6395018    10.708597     10.62817    10.681753          106            0            1            1 
    7710    354.16789   -475.98257    1214.2304   -471.08413   -19998.252    8.6501009    10.704043    10.621353    10.680054          106            0            1            1 
    7720    351.47027   -475.97034    1212.3695   -471.10921   -17463.187    8.6633784     10.69831    10.613429    10.677366          106            0            1            1 
    7730    356.12174   -476.05961    1210.1835   -471.13415   -14862.461    8.6790278    10.691562     10.60454    10.673779          106            0            1            1 
    7740    364.42136   -476.19745    1207.7207    -471.1572   -12166.112    8.6967255    10.683941    10.594894    10.669361          106            0            1            1 
    7750    367.44315   -476.25863    1205.0325   -471.17659   -8896.5621    8.7161267    10.675571    10.584738    10.664182          106            0            1            1 
    7760     360.5471   -476.17677    1202.1798    -471.1901   -4759.7838    8.7368094    10.666589    10.574343    10.658362          106            0            1            1 
    7770    348.09654   -476.01013    1199.2382   -471.19567   -24.139412    8.7582401    10.657177    10.563986    10.652106          106            0            1            1 
    7780    338.22107   -475.87046    1196.2926   -471.19258    4724.5403    8.7798054    10.647561    10.553928    10.645673          106            0            1            1 
    7790    335.64029   -475.82387    1193.4273   -471.18169    8979.5816    8.8008845    10.637985    10.544402    10.639339          106            0            1            1 
    7800    342.41447   -475.90091    1190.7174   -471.16503    12458.045    8.8209142    10.628678    10.535597    10.633355          106            0            1            1 
Setting up Verlet run ...
  Unit style    : metal
  Current step  : 7800
  Time step     : 0.001
Per MPI rank memory allocation (min/avg/max) = 5.152 | 5.152 | 5.152 Mbytes
Step Temp E_pair Volume TotEng Press Density Lx Ly Lz v_cNi v_cCo v_cFe v_cTi 
    7800    342.41447   -475.90091    1190.7174   -471.16503    12458.045    8.8209142    10.628678    10.535597    10.633355          106            0            1            1 
    7810    356.69549   -476.07863    1188.2237   -471.14523    15214.522    8.8394261    10.619839    10.527661    10.627923          106            0            1            1 
    7820     365.4862   -476.17898     1185.995     -471.124    17834.711    8.8560374    10.611642    10.520716     10.62319          106            0            1            1 
    7830    357.99202   -476.05357     1184.077   -471.10224    20798.259    8.8703823    10.604266    10.514884    10.619274          106            0            1            1 
    7840    349.51107    -475.9156      1182.52   -471.08157    23498.479    8.8820622    10.597914    10.510308    10.616287          106            0            1            1 
    7850    363.26543   -476.08941    1181.3682   -471.06515    24779.687     8.890722    10.592765    10.507126    10.614315          106            0            1            1 
    7860    390.47562   -476.45583    1180.6435   -471.05523    24740.153    8.8961786    10.588915    10.505407    10.613398          106            0            1            1 
    7870    399.29161   -476.57452    1180.3477   -471.05198    24632.068    8.8984082    10.586367     10.50515    10.613552          106            0            1            1 
    7880    378.60861   -476.29161    1180.4811   -471.05514    25086.342    8.8974031    10.585105    10.506332    10.614822          106            0            1            1 
    7890    349.61013   -475.90057    1181.0522   -471.06517    25401.862    8.8931008    10.585142    10.508944     10.61728          106            0            1            1 
    7900     334.8617   -475.71363    1182.0673   -471.08222    24622.101    8.8854638    10.586483    10.512992     10.62097          106            0            1            1 
Setting up Verlet run ...
  Unit style    : metal
  Current step  : 7900
  Time step     : 0.001
Per MPI rank memory allocation (min/avg/max) = 5.152 | 5.152 | 5.152 Mbytes
Step Temp E_pair Volume TotEng Press Density Lx Ly Lz v_cNi v_cCo v_cFe v_cTi 
    7900     334.8617   -475.71363    1182.0673   -471.08222    24622.101    8.8854638    10.586483    10.512992     10.62097          106            0            1            1 
    7910    337.46375   -475.77215    1183.5151   -471.10475    22452.125    8.8745936    10.589064    10.518463    10.625857          106            0            1            1 
    7920    349.88595   -475.96945    1185.3616   -471.13024    19149.505    8.8607698    10.592732    10.525316    10.631823          106            0            1            1 
    7930    365.36369   -476.20863    1187.5527   -471.15535    15138.255    8.8444206    10.597272     10.53346    10.638681          106            0            1            1 
    7940    380.11997   -476.43444    1190.0221   -471.17706    10889.013    8.8260683    10.602472    10.542736    10.646198          106            0            1            1 
    7950    390.25023   -476.59073    1192.6977   -471.19325    6798.2395     8.806268    10.608168    10.552912    10.654123          106            0            1            1 
    7960    389.38046   -476.58833    1195.5096   -471.20287    3171.3203    8.7855556    10.614244    10.563704    10.662222          106            0            1            1 
    7970    376.86802   -476.41839     1198.394   -471.20599   -10.029957    8.7644097    10.620614     10.57482    10.670309          106            0            1            1 
    7980    358.33639   -476.15933    1201.2938   -471.20324    -3017.953    8.7432535     10.62717     10.58599    10.678251          106            0            1            1 
    7990    334.16664   -475.81685    1204.1542   -471.19505   -5894.6008    8.7224844    10.633747    10.596992    10.685951          106            0            1            1 
    8000    306.55904    -475.4221    1206.9223   -471.18213   -8539.6129    8.7024791    10.640133    10.607656    10.693326          106            0            1            1 
Setting up Verlet run ...
  Unit style    : metal
  Current step  : 8000
  Time step     : 0.001
Per MPI rank memory allocation (min/avg/max) = 5.152 | 5.152 | 5.152 Mbytes
Step Temp E_pair Volume TotEng Press Density Lx Ly Lz v_cNi v_cCo v_cFe v_cTi 
    8000    306.55904    -475.4221    1206.9223   -471.18213   -8539.6129    8.7024791    10.640133    10.607656    10.693326          106            0            1            1 
    8010    295.92866    -475.2584    1209.5475   -471.16546    -11479.47     8.683591    10.646112    10.617857    10.700276          106            0            1            1 
    8020    318.93566   -475.55637    1211.9727   -471.14523   -15374.053    8.6662146    10.651485     10.62747    10.706631          106            0            1            1 
    8030    357.83653   -476.07071    1214.1248   -471.12154   -19712.207    8.6508538    10.656065    10.636312    10.712118          106            0            1            1 
    8040    381.90712   -476.37883    1215.9232   -471.09674   -23210.342    8.6380587    10.659693     10.64416    10.716428          106            0            1            1 
    8050    380.80195   -476.34178    1217.3021   -471.07498   -25134.421    8.6282738    10.662246    10.650816    10.719309          106            0            1            1 
    8060    368.21677   -476.15226    1218.2229   -471.05952   -25810.397    8.6217519    10.663645    10.656171     10.72062          106            0            1            1 
    8070    358.82523   -476.01462    1218.6702   -471.05177   -25755.471    8.6185878    10.663828    10.660192    10.720326          106            0            1            1 
    8080    351.26326    -475.9098    1218.6431   -471.05154   -25042.461    8.6187794     10.66275    10.662873    10.718476          106            0            1            1 
    8090    339.11645   -475.74809    1218.1542   -471.05783   -23612.429    8.6222383    10.660406    10.664219    10.715181          106            0            1            1 
    8100    323.19866   -475.53946    1217.2296   -471.06935   -21663.786    8.6287881    10.656848    10.664259    10.710581          106            0            1            1 
Setting up Verlet run ...
  Unit style    : metal
  Current step  : 8100
  Time step     : 0.001
Per MPI rank memory allocation (min/avg/max) = 5.152 | 5.152 | 5.152 Mbytes
Step Temp E_pair Volume TotEng Press Density Lx Ly Lz v_cNi v_cCo v_cFe v_cTi 
    8100    323.19866   -475.53946    1217.2296   -471.06935   -21663.786    8.6287881    10.656848    10.664259    10.710581          106            0            1            1 
    8110     310.3708    -475.3773     1215.905   -471.08461   -19511.928    8.6381877    10.652186    10.663067    10.704806          106            0            1            1 
    8120    309.77293   -475.38676    1214.2207   -471.10234   -17447.975    8.6501705    10.646551    10.660757    10.697952          106            0            1            1 
    8130    324.03916   -475.60307    1212.2155   -471.12134   -15512.717    8.6644792    10.640075    10.657458    10.690094          106            0            1            1 
    8140    342.27526   -475.87418    1209.9268   -471.14023   -13428.405    8.6808686    10.632874    10.653295    10.681309          106            0            1            1 
    8150    353.41877   -476.04536    1207.3951   -471.15729   -10862.797    8.6990712    10.625076    10.648375     10.67171          106            0            1            1 
    8160     359.5162   -476.14311    1204.6687    -471.1707   -7866.1147    8.7187588    10.616841    10.642808    10.661446          106            0            1            1 
    8170    366.62836   -476.24994    1201.8033   -471.17916   -4629.2698    8.7395464    10.608373    10.636701    10.650688          106            0            1            1 
    8180     373.6141   -476.34891    1198.8589   -471.18152   -1043.0598    8.7610107    10.599892    10.630174    10.639624          106            0            1            1 
    8190    374.41644   -476.35516     1195.901   -471.17667     3026.917    8.7826799    10.591614    10.623377    10.628464          106            0            1            1 
    8200    367.62565   -476.24861    1193.0025   -471.16404    7455.6073    8.8040182    10.583735    10.616512    10.617457          106            0            1            1 
Setting up Verlet run ...
  Unit style    : metal
  Current step  : 8200
  Time step     : 0.001
Per MPI rank memory allocation (min/avg/max) = 5.152 | 5.152 | 5.152 Mbytes
Step Temp E_pair Volume TotEng Press Density Lx Ly Lz v_cNi v_cCo v_cFe v_cTi 
    8200    367.62565   -476.24861    1193.0025   -471.16404    7455.6073    8.8040182    10.583735    10.616512    10.617457          106            0            1            1 
    8210    357.94574   -476.09485    1190.2413   -471.14416    11906.709    8.8244425    10.576425    10.609827    10.606885          106            0            1            1 
    8220    349.41336   -475.95134    1187.6946   -471.11866    16056.039    8.8433642    10.569823    10.603594    10.597025          106            0            1            1 
    8230    345.77951   -475.87247    1185.4333   -471.09005    19580.813    8.8602332    10.564054    10.598087    10.588124          106            0            1            1 
    8240    352.46403   -475.93658    1183.5167   -471.06171    22115.705    8.8745821    10.559247    10.593541    10.580356          106            0            1            1 
    8250    369.80048   -476.15123    1181.9867   -471.03658    23638.079    8.8860694     10.55555    10.590104     10.57381          106            0            1            1 
    8260    387.12046   -476.37063    1180.8687   -471.01643    24590.045    8.8944822    10.553125    10.587806    10.568529          106            0            1            1 
    8270    385.89484   -476.33937     1180.179   -471.00213    25617.599    8.8996803    10.552117    10.586604    10.564566          106            0            1            1 
    8280    362.23885   -476.00443     1179.935   -470.99437    26751.714    8.9015207    10.552627    10.586461    10.562013          106            0            1            1 
    8290    341.64622   -475.71975    1180.1548    -470.9945    27008.785    8.8998627    10.554697    10.587403    10.560969          106            0            1            1 
    8300    347.18381   -475.80445    1180.8423   -471.00261    25649.056    8.8946816     10.55829    10.589477    10.561456          106            0            1            1 
Setting up Verlet run ...
  Unit style    : metal
  Current step  : 8300
  Time step     : 0.001
Per MPI rank memory allocation (min/avg/max) = 5.152 | 5.152 | 5.152 Mbytes
Step Temp E_pair Volume TotEng Press Density Lx Ly Lz v_cNi v_cCo v_cFe v_cTi 
    8300    347.18381   -475.80445    1180.8423   -471.00261    25649.056    8.8946816     10.55829    10.589477    10.561456          106            0            1            1 
    8310    368.26459   -476.11005    1181.9757   -471.01664    23172.486    8.8861524    10.563297    10.592695    10.563373          106            0            1            1 
    8320    378.51317   -476.26919    1183.5155   -471.03404    20620.156    8.8745906    10.569576    10.597012    10.566544          106            0            1            1 
    8330    369.20293   -476.15983    1185.4204   -471.05345    18375.786    8.8603296    10.577002    10.602351    10.570794          106            0            1            1 
    8340    356.42096   -476.00338    1187.6528   -471.07378     15839.39    8.8436757    10.585482    10.608601    10.575983          106            0            1            1 
    8350    357.51819   -476.03745    1190.1692   -471.09268      12330.5    8.8249772    10.594909      10.6156     10.58198          106            0            1            1 
    8360     371.1585   -476.24011    1192.9099   -471.10668    7973.4978    8.8047014    10.605116    10.623126    10.588633          106            0            1            1 
    8370    382.68376    -476.4061    1195.8005   -471.11326    3520.2657    8.7834181    10.615869    10.630913    10.595773          106            0            1            1 
    8380    378.73889   -476.35033    1198.7636   -471.11206   -284.42149    8.7617072      10.6269    10.638695     10.60324          106            0            1            1 
    8390    360.50311   -476.09036    1201.7315    -471.1043   -3367.8326    8.7400689    10.637959    10.646253    10.610904          106            0            1            1 
    8400    341.67689   -475.81705    1204.6471   -471.09137   -6325.4578    8.7189153    10.648833    10.653416    10.618641          106            0            1            1 
Setting up Verlet run ...
  Unit style    : metal
  Current step  : 8400
  Time step     : 0.001
Per MPI rank memory allocation (min/avg/max) = 5.152 | 5.152 | 5.152 Mbytes
Step Temp E_pair Volume TotEng Press Density Lx Ly Lz v_cNi v_cCo v_cFe v_cTi 
    8400    341.67689   -475.81705    1204.6471   -471.09137   -6325.4578    8.7189153    10.648833    10.653416    10.618641          106            0            1            1 
    8410    335.05546   -475.70769    1207.4549   -471.07359   -9687.2412    8.6986401    10.659349    10.660026    10.626299          106            0            1            1 
    8420    342.39056   -475.78665    1210.0925   -471.05111   -13343.516    8.6796805    10.669349    10.665898    10.633671          106            0            1            1 
    8430    352.81314   -475.90492     1212.492   -471.02522   -16673.713    8.6625032    10.678688    10.670825    10.640523          106            0            1            1 
    8440    351.65096   -475.86196    1214.5915   -470.99834   -19069.846    8.6475299    10.687237    10.674621    10.646635          106            0            1            1 
    8450    336.23023   -475.62353    1216.3449   -470.97318   -20531.661    8.6350641    10.694905    10.677158    10.651827          106            0            1            1 
    8460    321.91107   -475.40391    1217.7224   -470.95161   -21725.692    8.6252958    10.701618    10.678381    10.655981          106            0            1            1 
    8470    325.32141   -475.43379    1218.6994   -470.93432   -23225.066     8.618381    10.707278    10.678263    10.659011          106            0            1            1 
    8480    343.54325   -475.67331    1219.2473   -470.92182   -24780.884    8.6145083    10.711739    10.676778    10.660844          106            0            1            1 
    8490    359.99005   -475.89411    1219.3377   -470.91515   -25687.543    8.6138696    10.714845    10.673894    10.661425          106            0            1            1 
[...]
  137440    379.45342   -480.84525    1244.8697   -475.59709    528.80568    8.3473956    10.700806    10.684639    10.887987           77           23            0            8 
  137450    389.47228   -480.98873    1245.2982     -475.602   -613.89522    8.3445232    10.700889    10.698218    10.877826           77           23            0            8 
  137460    389.55774   -480.99511    1245.7172    -475.6072   -1210.3285     8.341717    10.701136    10.712024    10.867209           77           23            0            8 
  137470    373.30473   -480.77589    1246.1155   -475.61277   -953.84305    8.3390504    10.701558    10.726015    10.856077           77           23            0            8 
  137480    354.26582    -480.5183    1246.4974   -475.61851   -347.76229    8.3364957    10.702237    10.740158    10.844414           77           23            0            8 
  137490    348.64141   -480.44533     1246.873   -475.62332    -160.6824    8.3339846    10.703257    10.754426    10.832259           77           23            0            8 
  137500    358.08678    -480.5783    1247.2451   -475.62566   -746.52527    8.3314984    10.704616    10.768762    10.819692           77           23            0            8 
Setting up Verlet run ...
  Unit style    : metal
  Current step  : 137500
  Time step     : 0.001
Per MPI rank memory allocation (min/avg/max) = 5.152 | 5.152 | 5.152 Mbytes
Step Temp E_pair Volume TotEng Press Density Lx Ly Lz v_cNi v_cCo v_cFe v_cTi 
  137500    358.08678    -480.5783    1247.2451   -475.62566   -746.52527    8.3314984    10.704616    10.768762    10.819692           77           23            0            8 
  137510    374.31904   -480.80104    1247.6023    -475.6239   -1956.0903    8.3291125    10.706227    10.783061    10.806814           77           23            0            8 
  137520    388.86163   -480.99643    1247.9219   -475.61815   -3343.9668    8.3269793    10.707953    10.797179    10.793708           77           23            0            8 
  137530    393.57313   -481.05355     1248.178    -475.6101   -4245.3768    8.3252711    10.709675    10.810978     10.78041           77           23            0            8 
  137540    382.38019   -480.89013    1248.3541   -475.60149   -4074.2682    8.3240965    10.711326    10.824376    10.766925           77           23            0            8 
  137550    359.77994    -480.5691    1248.4535   -475.59304     -2997.48    8.3234337    10.712915    10.837367     10.75328           77           23            0            8 
  137560    338.46049   -480.26526    1248.4959   -475.58407   -1802.6006    8.3231514    10.714498    10.849987    10.739549           77           23            0            8 
  137570    332.38825   -480.17032    1248.5028   -475.57312   -1369.5747     8.323105    10.716127    10.862254    10.725851           77           23            0            8 
  137580    351.48518   -480.42063    1248.4818    -475.5593   -2175.3162    8.3232453    10.717802     10.87411    10.712301           77           23            0            8 
  137590    386.81495   -480.89353    1248.4178   -475.54355   -3660.1271    8.3236716    10.719479    10.885426    10.698943           77           23            0            8 
  137600    411.90707   -481.22451    1248.2848   -475.52749   -4415.5343    8.3245589    10.721097    10.896073    10.685735           77           23            0            8 
Setting up Verlet run ...
  Unit style    : metal
  Current step  : 137600
  Time step     : 0.001
Per MPI rank memory allocation (min/avg/max) = 5.152 | 5.152 | 5.152 Mbytes
Step Temp E_pair Volume TotEng Press Density Lx Ly Lz v_cNi v_cCo v_cFe v_cTi 
  137600    411.90707   -481.22451    1248.2848   -475.52749   -4415.5343    8.3245589    10.721097    10.896073    10.685735           77           23            0            8 
  137610     408.1031   -481.15694    1248.0697   -475.51253   -3721.5204    8.3259936    10.722635    10.906009    10.672629           77           23            0            8 
  137620     382.3464   -480.78697    1247.7856    -475.4988   -2162.5365     8.327889    10.724113    10.915308    10.659641           77           23            0            8 
  137630     359.2255   -480.45418    1247.4614   -475.48579   -814.24584    8.3300533    10.725579    10.924091    10.646849           77           23            0            8 
  137640    356.71241   -480.40594    1247.1223   -475.47231   -208.31319    8.3323185    10.727085     10.93243    10.634342           77           23            0            8 
  137650    367.08846   -480.53436    1246.7805   -475.45722    71.500522    8.3346024    10.728693    10.940287      10.6222           77           23            0            8 
  137660    369.24755   -480.54733    1246.4428   -475.44033     676.2411    8.3368607     10.73049    10.947549    10.610501           77           23            0            8 
  137670    357.76942   -480.37064    1246.1211   -475.42239    1661.3283    8.3390132    10.732575    10.954124    10.599336           77           23            0            8 
  137680    346.80677   -480.20159    1245.8333   -475.40496    2389.9769    8.3409394    10.735032    10.959986    10.588796           77           23            0            8 
  137690    354.10875   -480.28617    1245.5921   -475.38855    2131.1504    8.3425549    10.737896    10.965147    10.578941           77           23            0            8 
  137700    379.57864    -480.6235     1245.392   -475.37361    954.48667    8.3438952    10.741143    10.969595    10.569757           77           23            0            8 
Setting up Verlet run ...
  Unit style    : metal
  Current step  : 137700
  Time step     : 0.001
Per MPI rank memory allocation (min/avg/max) = 5.152 | 5.152 | 5.152 Mbytes
Step Temp E_pair Volume TotEng Press Density Lx Ly Lz v_cNi v_cCo v_cFe v_cTi 
  137700    379.57864    -480.6235     1245.392   -475.37361    954.48667    8.3438952    10.741143    10.969595    10.569757           77           23            0            8 
  137710     402.3431   -480.92447    1245.2118   -475.35973   -142.58281    8.3451023    10.744711     10.97327     10.56118           77           23            0            8 
  137720    405.57756   -480.95583     1245.032   -475.34636   -309.77104    8.3463078    10.748543    10.976104    10.553164           77           23            0            8 
  137730    393.61063   -480.77775    1244.8494   -475.33378    467.03555     8.347532    10.752609    10.978074    10.545734           77           23            0            8 
  137740    378.53574   -480.55743    1244.6783   -475.32196    1695.0786    8.3486791    10.756898     10.97922     10.53898           77           23            0            8 
  137750    364.74726   -480.35567    1244.5415   -475.31091    2805.1255     8.349597    10.761403    10.979626    10.533021           77           23            0            8 
  137760    357.92144   -480.25128    1244.4592   -475.30092     3281.024    8.3501494    10.766112     10.97937    10.527963           77           23            0            8 
  137770    359.30396   -480.26193    1244.4401   -475.29246    3138.3121    8.3502775    10.771006    10.978491     10.52386           77           23            0            8 
  137780    356.81775   -480.22059    1244.4823    -475.2855    2993.5224    8.3499942    10.776062    10.976994    10.520714           77           23            0            8 
  137790    351.37353   -480.13976     1244.583   -475.27997    2923.4099    8.3493188    10.781266    10.974878    10.518514           77           23            0            8 
  137800    363.99237   -480.31022    1244.7391    -475.2759    2192.9901    8.3482716    10.786591    10.972147    10.517258           77           23            0            8 
Setting up Verlet run ...
  Unit style    : metal
  Current step  : 137800
  Time step     : 0.001
Per MPI rank memory allocation (min/avg/max) = 5.152 | 5.152 | 5.152 Mbytes
Step Temp E_pair Volume TotEng Press Density Lx Ly Lz v_cNi v_cCo v_cFe v_cTi 
  137800    363.99237   -480.31022    1244.7391    -475.2759    2192.9901    8.3482716    10.786591    10.972147    10.517258           77           23            0            8 
  137810    399.11745   -480.79297     1244.936   -475.27284    696.26602    8.3469516    10.791954    10.968782    10.516919           77           23            0            8 
  137820    425.06693   -481.14924    1245.1466   -475.27021   -333.96849    8.3455397    10.797225    10.964745    10.517434           77           23            0            8 
  137830    410.25021   -480.94259    1245.3534   -475.26848    274.19578    8.3441536    10.802323    10.960019     10.51875           77           23            0            8 
  137840    367.69408   -480.35419    1245.5676   -475.26868    1877.8751    8.3427188    10.807279    10.954651    10.520887           77           23            0            8 
  137850    342.34256    -480.0065    1245.8168   -475.27161    2597.8428    8.3410501    10.812219    10.948716    10.523887           77           23            0            8 
  137860    354.69428   -480.18209     1246.113   -475.27637    1686.0158     8.339067    10.817251    10.942244    10.527715           77           23            0            8 
  137870    380.74459    -480.5472    1246.4403   -475.28119    298.47341    8.3368776    10.822408     10.93521    10.532232           77           23            0            8 
  137880    387.72104   -480.64772    1246.7741   -475.28522   -168.12149    8.3346457    10.827663    10.927595    10.537278           77           23            0            8 
  137890    371.81595   -480.43151    1247.1056   -475.28899    323.82304    8.3324299    10.832973    10.919433    10.542788           77           23            0            8 
  137900    354.76585   -480.19967    1247.4428   -475.29297    737.93088    8.3301777    10.838286    10.910808    10.548801           77           23            0            8 
Setting up Verlet run ...
  Unit style    : metal
  Current step  : 137900
  Time step     : 0.001
Per MPI rank memory allocation (min/avg/max) = 5.152 | 5.152 | 5.152 Mbytes
Step Temp E_pair Volume TotEng Press Density Lx Ly Lz v_cNi v_cCo v_cFe v_cTi 
  137900    354.76585   -480.19967    1247.4428   -475.29297    737.93088    8.3301777    10.838286    10.910808    10.548801           77           23            0            8 
  137910     354.6339   -480.20192    1247.7919   -475.29704    209.03572    8.3278467    10.843517    10.901795    10.555383           77           23            0            8 
  137920    373.16419   -480.46161    1248.1426   -475.30044   -1234.6083    8.3255069    10.848541    10.892424     10.56254           77           23            0            8 
  137930    393.07881   -480.73944    1248.4683   -475.30283   -2652.3166    8.3233354    10.853236    10.882679    10.570182           77           23            0            8 
  137940    388.64733   -480.67979    1248.7436   -475.30448   -2874.6589       8.3215    10.857534     10.87254    10.578183           77           23            0            8 
  137950     361.6674   -480.30843    1248.9648   -475.30627   -2008.5979    8.3200267    10.861451     10.86202    10.586484           77           23            0            8 
  137960    345.83597   -480.09228    1249.1462   -475.30908   -1519.9436    8.3188183    10.865032    10.851172    10.595113           77           23            0            8 
  137970    357.93775   -480.26291    1249.2958   -475.31233    -2255.118    8.3178223    10.868259    10.840038    10.604116           77           23            0            8 
  137980     378.7577   -480.55364    1249.4006    -475.3151   -3399.4501    8.3171241    10.871044    10.828619     10.61347           77           23            0            8 
  137990    385.63723   -480.65057    1249.4408   -475.31688   -3835.2559    8.3168569    10.873296    10.816906    10.623104           77           23            0            8 
  138000    373.64879    -480.4856    1249.4087   -475.31773   -3333.7052    8.3170702    10.874991    10.804931    10.632947           77           23            0            8 
Setting up Verlet run ...
  Unit style    : metal
  Current step  : 138000
  Time step     : 0.001
Per MPI rank memory allocation (min/avg/max) = 5.152 | 5.152 | 5.152 Mbytes
Step Temp E_pair Volume TotEng Press Density Lx Ly Lz v_cNi v_cCo v_cFe v_cTi 
  138000    373.64879    -480.4856    1249.4087   -475.31773   -3333.7052    8.3170702    10.874991    10.804931    10.632947           77           23            0            8 
  138010    357.45189   -480.26124    1249.3135   -475.31738   -2711.2656    8.3177042    10.876166    10.792776    10.642961           77           23            0            8 
  138020    364.14546   -480.35249    1249.1653   -475.31606   -3219.4391    8.3186908    10.876853    10.780528    10.653116           77           23            0            8 
  138030     402.9916   -480.88799     1248.954   -475.31428     -5046.04    8.3200981    10.877008    10.768213    10.663342           77           23            0            8 
  138040    440.89571   -481.41022    1248.6476   -475.31226   -6414.1439    8.3221399    10.876527    10.755778    10.673524           77           23            0            8 
  138050    434.96368   -481.32607    1248.2242   -475.31016    -5357.265     8.324963    10.875357     10.74317    10.683576           77           23            0            8 
  138060    389.51955   -480.69534     1247.705   -475.30796   -2361.1492    8.3284269      10.8736    10.730439     10.69353           77           23            0            8 
  138070     353.3777   -480.19339    1247.1451   -475.30588    178.95751    8.3321664    10.871465     10.71772    10.703517           77           23            0            8 
  138080    358.07858   -480.25617     1246.591   -475.30365    792.86702    8.3358699    10.869116     10.70514    10.713649           77           23            0            8 
  138090    385.98331   -480.63848    1246.0556   -475.30001    251.71818    8.3394517    10.866589     10.69277     10.72393           77           23            0            8 
  138100    403.17975   -480.87041    1245.5312    -475.2941    240.76839    8.3429627    10.863843    10.680656    10.734287           77           23            0            8 
Setting up Verlet run ...
  Unit style    : metal
  Current step  : 138100
  Time step     : 0.001
Per MPI rank memory allocation (min/avg/max) = 5.152 | 5.152 | 5.152 Mbytes
Step Temp E_pair Volume TotEng Press Density Lx Ly Lz v_cNi v_cCo v_cFe v_cTi 
  138100    403.17975   -480.87041    1245.5312    -475.2941    240.76839    8.3429627    10.863843    10.680656    10.734287           77           23            0            8 
  138110    393.23373   -480.72498    1245.0192   -475.28623    1567.0959    8.3463935    10.860867    10.668875    10.744666           77           23            0            8 
  138120    364.82089   -480.32285    1244.5444   -475.27708     3671.007    8.3495774    10.857719    10.657557    10.755092           77           23            0            8 
  138130     346.3349   -480.05774    1244.1446   -475.26763    5062.9552     8.352261    10.854471    10.646861    10.765658           77           23            0            8 
  138140    356.76771   -480.19281    1243.8437   -475.25841    4811.2493    8.3542812    10.851139    10.636914    10.776429           77           23            0            8 
  138150    381.83875   -480.52998     1243.637   -475.24883    3610.8236    8.3556698    10.847671    10.627754    10.787371           77           23            0            8 
  138160    395.55714   -480.70914    1243.5029   -475.23825    2856.7159    8.3565709    10.844008    10.619365    10.798376           77           23            0            8 
  138170    390.06962     -480.622    1243.4274   -475.22702    3160.3877    8.3570782    10.840149    10.611727    10.809339           77           23            0            8 
  138180    371.43838   -480.35275    1243.4155   -475.21544    4239.9295    8.3571584    10.836184    10.604844    10.820207           77           23            0            8 
  138190    351.17408   -480.06099     1243.486   -475.20396     5277.857    8.3566846    10.832265     10.59873    10.830981           77           23            0            8 
  138200    349.27319   -480.02381     1243.656   -475.19307     5167.012    8.3555423    10.828532    10.593378     10.84167           77           23            0            8 
Setting up Verlet run ...
  Unit style    : metal
  Current step  : 138200
  Time step     : 0.001
Per MPI rank memory allocation (min/avg/max) = 5.152 | 5.152 | 5.152 Mbytes
Step Temp E_pair Volume TotEng Press Density Lx Ly Lz v_cNi v_cCo v_cFe v_cTi 
  138200    349.27319   -480.02381     1243.656   -475.19307     5167.012    8.3555423    10.828532    10.593378     10.84167           77           23            0            8 
  138210    378.05824   -480.41132    1243.9212   -475.18246    3447.3486    8.3537606     10.82503    10.588741    10.852241           77           23            0            8 
  138220    419.12081   -480.96793    1244.2492   -475.17114    1087.6346    8.3515589    10.821671    10.584736    10.862579           77           23            0            8 
  138230    443.05232   -481.28627    1244.5966   -475.15848   -381.42485    8.3492277    10.818304    10.581293    10.872531           77           23            0            8 
  138240    439.63035   -481.22597    1244.9363   -475.14552    -376.8038     8.346949     10.81482    10.578402    10.881977           77           23            0            8 
  138250    416.96428   -480.89985    1245.2679   -475.13289    519.33731    8.3447268    10.811206    10.576121    10.890861           77           23            0            8 
  138260    391.11477   -480.53064    1245.6069   -475.12119    1345.5101    8.3424552    10.807527    10.574534     10.89917           77           23            0            8 
  138270    374.86031   -480.29521    1245.9683   -475.11058    1503.7465    8.3400356    10.803858    10.573694    10.906901           77           23            0            8 
  138280    367.12978   -480.17894    1246.3549   -475.10122    1140.7611    8.3374489    10.800235    10.573592     10.91405           77           23            0            8 
  138290    359.60489   -480.06651    1246.7602   -475.09288    793.22485    8.3347381    10.796654    10.574179    10.920615           77           23            0            8 
  138300    351.37681    -479.9454    1247.1779   -475.08557    673.90216    8.3319472    10.793103    10.575397    10.926609           77           23            0            8 
Setting up Verlet run ...
  Unit style    : metal
  Current step  : 138300
  Time step     : 0.001
Per MPI rank memory allocation (min/avg/max) = 5.152 | 5.152 | 5.152 Mbytes
Step Temp E_pair Volume TotEng Press Density Lx Ly Lz v_cNi v_cCo v_cFe v_cTi 
  138300    351.37681    -479.9454    1247.1779   -475.08557    673.90216    8.3319472    10.793103    10.575397    10.926609           77           23            0            8 
  138310    348.54148   -479.89967    1247.6049   -475.07905    576.52725     8.329095    10.789583    10.577202    10.932051           77           23            0            8 
  138320    357.76413   -480.02151    1248.0387   -475.07333    79.657139    8.3262002    10.786083    10.579567    10.936955           77           23            0            8 
  138330    380.05884    -480.3246    1248.4689   -475.06