LAMMPS (22 Aug 2018)
Processor partition = 2
OMP_NUM_THREADS environment is not set. Defaulting to 1 thread. (../comm.cpp:87)
  using 1 OpenMP thread(s) per MPI task
Reading data file ...
  orthogonal box = (0 0 0) to (7.5 12.9904 12.2474)
  1 by 1 by 1 MPI processor grid
  reading atoms ...
  108 atoms
  reading velocities ...
  108 velocities
dynamic group Ni defined
dynamic group Co defined
dynamic group Ti defined
dynamic group Fe defined
Neighbor list info ...
  update every 1 steps, delay 10 steps, check yes
  max neighbors/atom: 2000, page size: 100000
  master list distance cutoff = 8.56034
  ghost atom cutoff = 8.56034
  binsize = 4.28017, bins = 2 4 3
  1 neighbor lists, perpetual/occasional/extra = 1 0 0
  (1) pair eam/alloy, perpetual
      attributes: half, newton on
      pair build: half/bin/atomonly/newton
      stencil: half/bin/3d/newton
      bin: standard
Setting up Verlet run ...
  Unit style    : metal
  Current step  : 0
  Time step     : 0.001
Per MPI rank memory allocation (min/avg/max) = 3.019 | 3.019 | 3.019 Mbytes
Step Temp E_pair E_mol TotEng Press Volume 
       0          800   -476.24509            0   -465.18042     23694.46    1193.2427 
    5000    414.56198   -470.70845            0   -464.97471    5351.0732    1216.7467 
Loop time of 2.20687 on 1 procs for 5000 steps with 108 atoms

Performance: 195.752 ns/day, 0.123 hours/ns, 2265.651 timesteps/s
100.0% CPU use with 1 MPI tasks x 1 OpenMP threads

MPI task timing breakdown:
Section |  min time  |  avg time  |  max time  |%varavg| %total
---------------------------------------------------------------
Pair    | 2.0169     | 2.0169     | 2.0169     |   0.0 | 91.39
Neigh   | 0          | 0          | 0          |   0.0 |  0.00
Comm    | 0.041139   | 0.041139   | 0.041139   |   0.0 |  1.86
Output  | 2.8849e-05 | 2.8849e-05 | 2.8849e-05 |   0.0 |  0.00
Modify  | 0.12703    | 0.12703    | 0.12703    |   0.0 |  5.76
Other   |            | 0.02175    |            |       |  0.99

Nlocal:    108 ave 108 max 108 min
Histogram: 1 0 0 0 0 0 0 0 0 0
Nghost:    1852 ave 1852 max 1852 min
Histogram: 1 0 0 0 0 0 0 0 0 0
Neighs:    13500 ave 13500 max 13500 min
Histogram: 1 0 0 0 0 0 0 0 0 0

Total # of neighbors = 13500
Ave neighs/atom = 125
Neighbor list builds = 0
Dangerous builds = 0
WARNING: Using 'neigh_modify every 1 delay 0 check yes' setting during minimization (../min.cpp:168)
Setting up Verlet run ...
  Unit style    : metal
  Current step  : 5000
  Time step     : 0.001
Per MPI rank memory allocation (min/avg/max) = 5.148 | 5.148 | 5.148 Mbytes
Step Temp E_pair Volume TotEng Press Density Lx Ly Lz v_cNi v_cCo v_cFe v_cTi 
    5000    414.56198   -470.70845    1216.7467   -464.97471    5351.0732    8.6862273    7.5327648    13.168431    12.266248            0          108            0            0 
    5010    410.87872   -470.65766    1216.7966   -464.97486    5570.1288    8.6858709    7.5329539    13.168512    12.266368            0          108            0            0 
    5020    399.26574   -470.49766    1216.9506   -464.97548    6008.1255    8.6847718    7.5335238    13.168774    12.266748            0          108            0            0 
    5030    395.56079   -470.44759    1217.2153   -464.97665    5767.5714    8.6828829    7.5344606    13.169282    12.267418            0          108            0            0 
    5040    405.74644   -470.58996     1217.586   -464.97815    4611.8519    8.6802396    7.5357191     13.17008    12.268361            0          108            0            0 
    5050    420.30759   -470.79287    1218.0424   -464.97966    3172.2733    8.6769874    7.5372334    13.171164    12.269483            0          108            0            0 
    5060    420.47428   -470.79647    1218.5596   -464.98096     2413.385    8.6733044    7.5389494    13.172503    12.270652            0          108            0            0 
    5070    400.38222   -470.51982    1219.1244    -464.9822    2546.3942    8.6692862    7.5408586    13.174071    12.271771            0          108            0            0 
    5080     377.7047   -470.20774     1219.738   -464.98377     2692.146    8.6649248    7.5429943    13.175853    12.272811            0          108            0            0 
    5090    373.62986   -470.15317    1220.4017   -464.98555    1872.5541     8.660213    7.5453838    13.177792    12.273794            0          108            0            0 
    5100    389.31685   -470.37142       1221.1   -464.98684    67.072821    8.6552605    7.5479961    13.179744    12.274748            0          108            0            0 
Setting up Verlet run ...
  Unit style    : metal
  Current step  : 5100
  Time step     : 0.001
Per MPI rank memory allocation (min/avg/max) = 5.148 | 5.148 | 5.148 Mbytes
Step Temp E_pair Volume TotEng Press Density Lx Ly Lz v_cNi v_cCo v_cFe v_cTi 
    5100    389.31685   -470.37142       1221.1   -464.98684    67.072821    8.6552605    7.5479961    13.179744    12.274748            0          108            0            0 
    5110    408.33059   -470.63463    1221.8009   -464.98708   -1839.2919    8.6502954    7.5507395     13.18151    12.275687            0          108            0            0 
    5120    414.77184   -470.72304    1222.4703    -464.9864   -3004.6722    8.6455581    7.5535067    13.182905    12.276614            0          108            0            0 
    5130    407.71612   -470.62438    1223.0868   -464.98532   -3426.1129    8.6412004    7.5562174    13.183824    12.277543            0          108            0            0 
    5140    399.39467   -470.50818    1223.6413   -464.98422   -3755.5407    8.6372846    7.5588176    13.184225    12.278509            0          108            0            0 
    5150    402.21578   -470.54611    1224.1265   -464.98313    -4596.488    8.6338611    7.5612528    13.184093    12.279546            0          108            0            0 
    5160     418.3007   -470.76754    1224.5264    -464.9821   -5980.8703     8.631042    7.5634511    13.183397    12.280634            0          108            0            0 
    5170    435.85945    -471.0096    1224.8157    -464.9813   -7273.3943    8.6290029    7.5653368    13.182098    12.281685            0          108            0            0 
    5180    437.06778   -471.02601    1224.9718     -464.981   -7579.1209    8.6279035    7.5668615    13.180169    12.282572            0          108            0            0 
    5190    416.10087   -470.73625    1224.9892   -464.98123    -6676.399    8.6277805    7.5680272    13.177636    12.283215            0          108            0            0 
    5200    389.64774   -470.37111    1224.8836   -464.98196   -5381.8783    8.6285244      7.56888    13.174577    12.283624            0          108            0            0 
Setting up Verlet run ...
  Unit style    : metal
  Current step  : 5200
  Time step     : 0.001
Per MPI rank memory allocation (min/avg/max) = 5.148 | 5.148 | 5.148 Mbytes
Step Temp E_pair Volume TotEng Press Density Lx Ly Lz v_cNi v_cCo v_cFe v_cTi 
    5200    389.64774   -470.37111    1224.8836   -464.98196   -5381.8783    8.6285244      7.56888    13.174577    12.283624            0          108            0            0 
    5210    378.21216   -470.21418    1224.6773   -464.98319   -4650.2635    8.6299778    7.5694789     13.17107    12.283854            0          108            0            0 
    5220    382.09219   -470.26939    1224.3837   -464.98474   -4527.3491    8.6320477     7.569868    13.167147    12.283936            0          108            0            0 
    5230    390.73757   -470.39063    1224.0058   -464.98641   -4444.3625    8.6347129    7.5700652    13.162823    12.283859            0          108            0            0 
    5240    395.67603   -470.46057    1223.5459   -464.98804   -3879.8958    8.6379584    7.5700684    13.158136    12.283612            0          108            0            0 
    5250    389.58309   -470.37752    1223.0151   -464.98926   -2566.2847    8.6417072    7.5698788    13.153176    12.283221            0          108            0            0 
    5260    376.72727   -470.20013    1222.4373   -464.98968   -951.72554    8.6457917     7.569526    13.148071    12.282757            0          108            0            0 
    5270    379.03817   -470.23203    1221.8407   -464.98962   -149.11645    8.6500136    7.5690679    13.142943    12.282296            0          108            0            0 
    5280    408.25644   -470.63634     1221.239   -464.98981   -613.07842     8.654275    7.5685593    13.137846    12.281836            0          108            0            0 
    5290    441.08217   -471.09082    1220.6254   -464.99028   -1228.1604    8.6586258    7.5680278    13.132765    12.281276            0          108            0            0 
    5300    446.39865   -471.16446    1219.9908   -464.99039   -544.07284    8.6631293    7.5674892    13.127709    12.280493            0          108            0            0 
Setting up Verlet run ...
  Unit style    : metal
  Current step  : 5300
  Time step     : 0.001
Per MPI rank memory allocation (min/avg/max) = 5.148 | 5.148 | 5.148 Mbytes
Step Temp E_pair Volume TotEng Press Density Lx Ly Lz v_cNi v_cCo v_cFe v_cTi 
    5300    446.39865   -471.16446    1219.9908   -464.99039   -544.07284    8.6631293    7.5674892    13.127709    12.280493            0          108            0            0 
    5310    423.09536   -470.84137    1219.3485   -464.98961    1498.8555    8.6676928    7.5669815    13.122802    12.279441            0          108            0            0 
    5320    396.71261   -470.47489    1218.7343   -464.98802    3616.1785    8.6720609    7.5665709    13.118245    12.278186            0          108            0            0 
    5330    391.00167   -470.39428    1218.1853    -464.9864    4612.7707     8.675969    7.5663257    13.114197    12.276841            0          108            0            0 
    5340     403.5067   -470.56611    1217.7199   -464.98527    4600.4145    8.6792849    7.5662893    13.110697    12.275486            0          108            0            0 
    5350    415.71318   -470.73425    1217.3393   -464.98459    4486.3979    8.6819985    7.5664803    13.107691    12.274154            0          108            0            0 
    5360     417.4482   -470.75796    1217.0424    -464.9843    4830.2291    8.6841169    7.5669144    13.105118    12.272865            0          108            0            0 
    5370    407.98247   -470.62704    1216.8357   -464.98431    5670.5889    8.6855918    7.5676192     13.10295    12.271668            0          108            0            0 
    5380     395.1264   -470.44955    1216.7344   -464.98462    6604.7074    8.6863147     7.568626    13.101193    12.270659            0          108            0            0 
    5390    387.62734   -470.34657    1216.7552   -464.98536    7132.0495    8.6861668    7.5699441    13.099872     12.26997            0          108            0            0 
    5400     386.2569   -470.32867    1216.9076   -464.98641    7037.7213     8.685079    7.5715464     13.09901    12.269717            0          108            0            0 
Setting up Verlet run ...
  Unit style    : metal
  Current step  : 5400
  Time step     : 0.001
Per MPI rank memory allocation (min/avg/max) = 5.148 | 5.148 | 5.148 Mbytes
Step Temp E_pair Volume TotEng Press Density Lx Ly Lz v_cNi v_cCo v_cFe v_cTi 
    5400     386.2569   -470.32867    1216.9076   -464.98641    7037.7213     8.685079    7.5715464     13.09901    12.269717            0          108            0            0 
    5410    390.11309   -470.38331    1217.1902   -464.98772    6323.1594    8.6830621    7.5733801    13.098619    12.269962            0          108            0            0 
    5420    397.67915   -470.48941    1217.5908   -464.98918    5193.6106    8.6802058    7.5753804    13.098687    12.270694            0          108            0            0 
    5430    405.18664   -470.59455    1218.0892   -464.99048    3941.8572    8.6766538    7.5774736    13.099184    12.271861            0          108            0            0 
    5440     411.1686    -470.6783    1218.6631   -464.99149    2769.2098    8.6725674    7.5795743    13.100082    12.273399            0          108            0            0 
    5450    413.14701   -470.70646    1219.2916   -464.99229     1870.938    8.6680973    7.5815936    13.101366    12.275255            0          108            0            0 
    5460    407.04698   -470.62268    1219.9584   -464.99288    1285.9112    8.6633597    7.5834642    13.103017     12.27739            0          108            0            0 
    5470    401.14131   -470.54159    1220.6522   -464.99347    596.67303    8.6584356    7.5851492    13.104999    12.279786            0          108            0            0 
    5480    404.46601    -470.5882    1221.3598   -464.99409   -529.45872    8.6534195     7.586618    13.107253    12.282413            0          108            0            0 
    5490    411.36246   -470.68389    1222.0606   -464.99441   -1857.7954     8.648457     7.587823    13.109722    12.285196            0          108            0            0 
    5500    415.45532   -470.74053    1222.7304   -464.99444   -3071.9422    8.6437191    7.5887049    13.112372    12.288017            0          108            0            0 
Setting up Verlet run ...
  Unit style    : metal
  Current step  : 5500
  Time step     : 0.001
Per MPI rank memory allocation (min/avg/max) = 5.148 | 5.148 | 5.148 Mbytes
Step Temp E_pair Volume TotEng Press Density Lx Ly Lz v_cNi v_cCo v_cFe v_cTi 
    5500    415.45532   -470.74053    1222.7304   -464.99444   -3071.9422    8.6437191    7.5887049    13.112372    12.288017            0          108            0            0 
    5510    415.80226   -470.74541    1223.3467   -464.99452   -4033.5376    8.6393645    7.5892102    13.115171    12.290768            0          108            0            0 
    5520    408.62669   -470.64639    1223.8916   -464.99474   -4574.3355    8.6355181    7.5893045    13.118052    12.293389            0          108            0            0 
    5530    395.41175   -470.46398    1224.3546    -464.9951   -4762.5071    8.6322525    7.5889846    13.120922    12.295868            0          108            0            0 
    5540    385.53466   -470.32787    1224.7313    -464.9956   -4952.0243    8.6295979    7.5882797    13.123706    12.298184            0          108            0            0 
    5550    385.06983   -470.32194    1225.0171    -464.9961   -5410.2237    8.6275845    7.5872325    13.126373    12.300252            0          108            0            0 
    5560    395.26622   -470.46343    1225.2029   -464.99657   -6220.1026    8.6262762    7.5858811    13.128902    12.301939            0          108            0            0 
    5570    413.46446   -470.71584    1225.2732   -464.99728   -7196.0602    8.6257812     7.584247    13.131241    12.303103            0          108            0            0 
    5580    427.44956    -470.9105    1225.2104   -464.99852   -7666.4118    8.6262234    7.5823323      13.1333    12.303651            0          108            0            0 
    5590    423.72172   -470.86067    1225.0063   -465.00025   -7053.9508    8.6276607    7.5801347    13.135003    12.303572            0          108            0            0 
    5600    408.09123   -470.64641    1224.6713   -465.00217    -5802.623    8.6300203     7.577679    13.136341    12.302941            0          108            0            0 
Setting up Verlet run ...
  Unit style    : metal
  Current step  : 5600
  Time step     : 0.001
Per MPI rank memory allocation (min/avg/max) = 5.148 | 5.148 | 5.148 Mbytes
Step Temp E_pair Volume TotEng Press Density Lx Ly Lz v_cNi v_cCo v_cFe v_cTi 
    5600    408.09123   -470.64641    1224.6713   -465.00217    -5802.623    8.6300203     7.577679    13.136341    12.302941            0          108            0            0 
    5610    401.21167   -470.55327    1224.2268   -465.00418   -4934.3621    8.6331537    7.5750244    13.137341    12.301849            0          108            0            0 
    5620    406.71935   -470.63159    1223.6884   -465.00632   -4549.5516    8.6369523    7.5722366    13.138015    12.300335            0          108            0            0 
    5630    406.20669   -470.62652    1223.0645   -465.00834   -3731.6132    8.6413581    7.5693641    13.138369    12.298397            0          108            0            0 
    5640     391.9881   -470.43142     1222.371    -465.0099   -2044.5689    8.6462606    7.5664477    13.138468    12.296069            0          108            0            0 
    5650    377.46903    -470.2315    1221.6382   -465.01079   -130.70477    8.6514472    7.5635366    13.138436    12.293456            0          108            0            0 
    5660    373.86929   -470.18185    1220.9003   -465.01092    1280.2918    8.6566761    7.5606881    13.138384    12.290708            0          108            0            0 
    5670    379.73218   -470.26231    1220.1832   -465.01029     2084.275    8.6617633    7.5579554    13.138338    12.287974            0          108            0            0 
    5680    392.70826   -470.44071    1219.5022   -465.00923     2439.245    8.6666007    7.5553747    13.138263    12.285381            0          108            0            0 
    5690    412.94941   -470.71981    1218.8639   -465.00837    2516.2995    8.6711393    7.5529514    13.138138    12.283007            0          108            0            0 
    5700    429.47182   -470.94794    1218.2706   -465.00798    2818.4549    8.6753619    7.5506637    13.138007    12.280871            0          108            0            0 
Setting up Verlet run ...
  Unit style    : metal
  Current step  : 5700
  Time step     : 0.001
Per MPI rank memory allocation (min/avg/max) = 5.148 | 5.148 | 5.148 Mbytes
Step Temp E_pair Volume TotEng Press Density Lx Ly Lz v_cNi v_cCo v_cFe v_cTi 
    5700    429.47182   -470.94794    1218.2706   -465.00798    2818.4549    8.6753619    7.5506637    13.138007    12.280871            0          108            0            0 
    5710    424.33783   -470.87656    1217.7293   -465.00762    3967.0188    8.6792184    7.5484904    13.137983     12.27897            0          108            0            0 
    5720    401.36666   -470.55826     1217.261   -465.00702     5644.058    8.6825571    7.5464337    13.138227    12.277366            0          108            0            0 
    5730    386.82496   -470.35682    1216.8951    -465.0067    6644.6464    8.6851679     7.544508    13.138892    12.276186            0          108            0            0 
    5740      395.178   -470.47282    1216.6492   -465.00718    6383.3434    8.6869234    7.5427124    13.140047    12.275549            0          108            0            0 
    5750    411.60368   -470.70117    1216.5201   -465.00835    5670.3247    8.6878452    7.5410232    13.141658    12.275491            0          108            0            0 
    5760    414.40446   -470.74143     1216.497   -465.00987    5621.2024    8.6880099    7.5394147    13.143676    12.275992            0          108            0            0 
    5770    402.02086   -470.57206    1216.5798   -465.01177    6290.8034    8.6874185    7.5378849    13.146113    12.277042            0          108            0            0 
    5780    388.46781   -470.38703    1216.7802    -465.0142    6862.3836    8.6859878    7.5364636    13.149029    12.278656            0          108            0            0 
    5790    388.10884   -470.38489     1217.108   -465.01702    6449.9727    8.6836487    7.5351933    13.152461    12.280829            0          108            0            0 
    5800    407.11617   -470.65064    1217.5557   -465.01989     4789.798    8.6804556    7.5340994    13.156371    12.283479            0          108            0            0 
Setting up Verlet run ...
  Unit style    : metal
  Current step  : 5800
  Time step     : 0.001
Per MPI rank memory allocation (min/avg/max) = 5.148 | 5.148 | 5.148 Mbytes
Step Temp E_pair Volume TotEng Press Density Lx Ly Lz v_cNi v_cCo v_cFe v_cTi 
    5800    407.11617   -470.65064    1217.5557   -465.01989     4789.798    8.6804556    7.5340994    13.156371    12.283479            0          108            0            0 
    5810    432.14832   -470.99912    1218.0946   -465.02214    2717.1002    8.6766152    7.5331819    13.160644    12.286422            0          108            0            0 
    5820     436.6562   -471.06274    1218.6894   -465.02342     1610.884    8.6723807    7.5324379    13.165151    12.289427            0          108            0            0 
    5830    413.02567   -470.73646    1219.3207   -465.02397    1758.3442    8.6678907    7.5318931    13.169813     12.29233            0          108            0            0 
    5840    388.63383   -470.39956    1219.9895   -465.02443    1856.3166    8.6631387    7.5316041    13.174585    12.295089            0          108            0            0 
    5850    389.44647   -470.41121    1220.6959   -465.02484    722.71723    8.6581253    7.5316186    13.179364    12.297723            0          108            0            0 
    5860    405.79676   -470.63714    1221.4196   -465.02463   -1229.5299    8.6529955    7.5319415    13.183948    12.300209            0          108            0            0 
    5870     411.6696   -470.71745    1222.1264   -465.02372   -2693.7896    8.6479909     7.532552     13.18811    12.302445            0          108            0            0 
    5880    396.86467   -470.51174    1222.7901   -465.02277   -3077.0496    8.6432972    7.5334455    13.191708    12.304309            0          108            0            0 
    5890    375.08573   -470.21017    1223.4023   -465.02242   -3010.5874    8.6389722    7.5346456    13.194708     12.30571            0          108            0            0 
    5900    370.61512   -470.14876    1223.9619   -465.02285   -3667.8605    8.6350227    7.5361645    13.197108    12.306619            0          108            0            0 
Setting up Verlet run ...
  Unit style    : metal
  Current step  : 5900
  Time step     : 0.001
Per MPI rank memory allocation (min/avg/max) = 5.148 | 5.148 | 5.148 Mbytes
Step Temp E_pair Volume TotEng Press Density Lx Ly Lz v_cNi v_cCo v_cFe v_cTi 
    5900    370.61512   -470.14876    1223.9619   -465.02285   -3667.8605    8.6350227    7.5361645    13.197108    12.306619            0          108            0            0 
    5910    392.85614   -470.45724    1224.4551   -465.02371   -5480.6276     8.631544    7.5379483    13.198855    12.307036            0          108            0            0 
    5920    425.70602   -470.91256    1224.8488   -465.02469   -7637.9582    8.6287697    7.5398705    13.199834    12.306941            0          108            0            0 
    5930    442.04929   -471.13997     1225.104   -465.02606   -8754.1736    8.6269721    7.5417843    13.199956    12.306268            0          108            0            0 
    5940    422.88775    -470.8769    1225.2007   -465.02801   -7927.7005    8.6262913     7.543591    13.199246    12.304954            0          108            0            0 
    5950    378.21467    -470.2612    1225.1528   -465.03018   -5735.2323     8.626629    7.5452721    13.197865    12.303018            0          108            0            0 
    5960    347.92563    -469.8445    1224.9973    -465.0324   -4073.4146    8.6277241    7.5468644    13.196029    12.300572            0          108            0            0 
    5970    357.84613   -469.98427    1224.7624   -465.03496   -4111.3331    8.6293783    7.5483992    13.193872    12.297723            0          108            0            0 
    5980    387.53192   -470.39766    1224.4482   -465.03777   -5001.8056    8.6315929    7.5498615    13.191384    12.294506            0          108            0            0 
    5990    405.42401    -470.6477    1224.0398   -465.04034   -5299.9512    8.6344727    7.5511926     13.18849    12.290935            0          108            0            0 
    6000    406.37801   -470.66289    1223.5319   -465.04234   -4643.8112    8.6380571    7.5523141     13.18517    12.287104            0          108            0            0 
Setting up Verlet run ...
  Unit style    : metal
  Current step  : 6000
  Time step     : 0.001
Per MPI rank memory allocation (min/avg/max) = 5.148 | 5.148 | 5.148 Mbytes
Step Temp E_pair Volume TotEng Press Density Lx Ly Lz v_cNi v_cCo v_cFe v_cTi 
    6000    406.37801   -470.66289    1223.5319   -465.04234   -4643.8112    8.6380571    7.5523141     13.18517    12.287104            0          108            0            0 
    6010    399.32922   -470.56664    1222.9357   -465.04358    -3365.478    8.6422682    7.5531526    13.181495    12.283176            0          108            0            0 
    6020    386.71958   -470.39259    1222.2745   -465.04394   -1656.4691    8.6469434    7.5536642    13.177606    12.279326            0          108            0            0 
    6030    372.56447   -470.19631    1221.5794   -465.04344     174.4489    8.6518637    7.5538583    13.173659    12.275705            0          108            0            0 
    6040    372.69017    -470.1973     1220.883   -465.04268    1373.7951    8.6567985    7.5537965    13.169766    12.272435            0          108            0            0 
    6050    393.86797   -470.48997    1220.2068   -465.04245    1564.2222    8.6615957      7.55356     13.16594    12.269586            0          108            0            0 
    6060    417.83717   -470.82181    1219.5554   -465.04277    1450.3824    8.6662221    7.5532148    13.162105     12.26717            0          108            0            0 
    6070    428.52255   -470.97018    1218.9282   -465.04336    1804.3032    8.6706817    7.5528141    13.158171    12.265176            0          108            0            0 
    6080    430.34552   -470.99624    1218.3317    -465.0442    2575.4699    8.6749268    7.5524197    13.154107    12.263602            0          108            0            0 
    6090    428.57981   -470.97284    1217.7801   -465.04522    3517.8825    8.6788563    7.5521076    13.149943    12.262438            0          108            0            0 
    6100    419.62733   -470.84993    1217.2911   -465.04613    4642.6964    8.6823423    7.5519604    13.145751    12.261663            0          108            0            0 
Setting up Verlet run ...
  Unit style    : metal
  Current step  : 6100
  Time step     : 0.001
Per MPI rank memory allocation (min/avg/max) = 5.148 | 5.148 | 5.148 Mbytes
Step Temp E_pair Volume TotEng Press Density Lx Ly Lz v_cNi v_cCo v_cFe v_cTi 
    6100    419.62733   -470.84993    1217.2911   -465.04613    4642.6964    8.6823423    7.5519604    13.145751    12.261663            0          108            0            0 
    6110    406.48675   -470.66895    1216.8857    -465.0469    5728.7388    8.6852349    7.5520588    13.141634    12.261259            0          108            0            0 
    6120     400.4139   -470.58607    1216.5837   -465.04801    6338.6551    8.6873913    7.5524656    13.137684    12.261241            0          108            0            0 
    6130    401.74159   -470.60636    1216.3968   -465.04994    6503.4392    8.6887257    7.5532157    13.133918    12.261655            0          108            0            0 
    6140    399.52586   -470.57855    1216.3298   -465.05277    6654.9282    8.6892045    7.5543328    13.130269    12.262573            0          108            0            0 
    6150    394.12717   -470.50755    1216.3862   -465.05644    6735.4849    8.6888015    7.5558464    13.126664    12.264052            0          108            0            0 
    6160    399.81655   -470.59069    1216.5675    -465.0609    6166.4605    8.6875066    7.5577765    13.123086    12.266091            0          108            0            0 
    6170    415.93789   -470.81848    1216.8641   -465.06572    4990.7909     8.685389    7.5601036    13.119552    12.268609            0          108            0            0 
    6180    420.17679   -470.88174    1217.2571   -465.07034     4216.716    8.6825854    7.5627707    13.116066    12.271504            0          108            0            0 
    6190    401.00253   -470.62088    1217.7339   -465.07468    4338.6842    8.6791857    7.5657203    13.112624    12.274745            0          108            0            0 
    6200    379.18459    -470.3234    1218.2962   -465.07896    4400.4638    8.6751795    7.5689153     13.10925     12.27839            0          108            0            0 
Setting up Verlet run ...
  Unit style    : metal
  Current step  : 6200
  Time step     : 0.001
Per MPI rank memory allocation (min/avg/max) = 5.148 | 5.148 | 5.148 Mbytes
Step Temp E_pair Volume TotEng Press Density Lx Ly Lz v_cNi v_cCo v_cFe v_cTi 
    6200    379.18459    -470.3234    1218.2962   -465.07896    4400.4638    8.6751795    7.5689153     13.10925     12.27839            0          108            0            0 
    6210    383.69053   -470.38976    1218.9439     -465.083    3133.8324    8.6705702    7.5723088    13.105982    12.282473            0          108            0            0 
    6220    411.60193   -470.77879    1219.6542   -465.08599    758.72225    8.6655207    7.5758112    13.102828    12.286905            0          108            0            0 
    6230    427.47711    -470.9997    1220.3863   -465.08734   -1053.4234    8.6603222    7.5793067    13.099742    12.291506            0          108            0            0 
    6240    407.81847   -470.72778    1221.1088   -465.08731   -1202.3332     8.655198    7.5827026    13.096703    12.296128            0          108            0            0 
    6250     370.9404   -470.21695    1221.8178   -465.08654   -512.61888    8.6501758    7.5859528    13.093786    12.300735            0          108            0            0 
    6260    354.50365   -469.98841    1222.5229   -465.08533   -758.70104    8.6451862    7.5890253    13.091134    12.305343            0          108            0            0 
    6270    372.73061    -470.2386    1223.2182   -465.08342   -2633.3869     8.640272    7.5918484    13.088847    12.309914            0          108            0            0 
    6280    406.17263   -470.69834    1223.8698   -465.08063   -5196.9796     8.635672    7.5942936    13.086923    12.314316            0          108            0            0 
    6290    425.05465   -470.95638    1224.4316   -465.07752   -6968.0573      8.63171    7.5962231      13.0853    12.318366            0          108            0            0 
    6300    416.49668   -470.83554    1224.8709   -465.07504   -7210.9126    8.6286142    7.5975623    13.083923    12.321911            0          108            0            0 
Setting up Verlet run ...
  Unit style    : metal
  Current step  : 6300
  Time step     : 0.001
Per MPI rank memory allocation (min/avg/max) = 5.148 | 5.148 | 5.148 Mbytes
Step Temp E_pair Volume TotEng Press Density Lx Ly Lz v_cNi v_cCo v_cFe v_cTi 
    6300    416.49668   -470.83554    1224.8709   -465.07504   -7210.9126    8.6286142    7.5975623    13.083923    12.321911            0          108            0            0 
    6310    392.80998   -470.50667    1225.1813   -465.07378   -6456.1261    8.6264278    7.5983337    13.082769     12.32487            0          108            0            0 
    6320    376.80848   -470.28527    1225.3739    -465.0737   -5896.0045    8.6250719    7.5986243    13.081832    12.327219            0          108            0            0 
    6330    382.65937   -470.36704    1225.4566   -465.07455   -6373.2043    8.6244898    7.5985164    13.081081    12.328934            0          108            0            0 
    6340    408.95431   -470.73259    1225.4194   -465.07641   -7802.8739     8.624752    7.5980441    13.080438    12.329931            0          108            0            0 
    6350    436.30318   -471.11415     1225.236   -465.07971   -9022.6095    8.6260428    7.5972078    13.079782    12.330062            0          108            0            0 
    6360    433.89668   -471.08537    1224.8852   -465.08421   -8430.7461    8.6285131    7.5960302    13.078995    12.329184            0          108            0            0 
    6370    397.41603    -470.5855    1224.3775    -465.0889    -5911.047    8.6320914    7.5946062    13.078044     12.32728            0          108            0            0 
    6380    365.14943   -470.14353    1223.7557    -465.0932   -3416.9077    8.6364773    7.5930834    13.077001    12.324474            0          108            0            0 
    6390     372.1306   -470.24449    1223.0625   -465.09761   -2714.2081    8.6413721    7.5915789    13.075956    12.320919            0          108            0            0 
    6400    408.47008    -470.7523     1222.311   -465.10282   -3321.0601    8.6466852    7.5901217    13.074924    12.316684            0          108            0            0 
Setting up Verlet run ...
  Unit style    : metal
  Current step  : 6400
  Time step     : 0.001
Per MPI rank memory allocation (min/avg/max) = 5.148 | 5.148 | 5.148 Mbytes
Step Temp E_pair Volume TotEng Press Density Lx Ly Lz v_cNi v_cCo v_cFe v_cTi 
    6400    408.47008    -470.7523     1222.311   -465.10282   -3321.0601    8.6466852    7.5901217    13.074924    12.316684            0          108            0            0 
    6410    434.24041   -471.11453    1221.4926   -465.10862   -3251.0762    8.6524784    7.5886795    13.073852    12.311786            0          108            0            0 
    6420    423.42308   -470.97008    1220.6104   -465.11378   -1286.1794    8.6587318    7.5872379    13.072717      12.3063            0          108            0            0 
    6430    387.59833   -470.47786    1219.6998   -465.11706       1889.4    8.6651961    7.5858563    13.071593    12.300418            0          108            0            0 
    6440    359.93375   -470.09655    1218.8169   -465.11836    4522.5332    8.6714731    7.5846573    13.070607    12.294384            0          108            0            0 
    6450     365.8105   -470.17841    1218.0085   -465.11895    5341.0855     8.677229    7.5837657    13.069842    12.288392            0          108            0            0 
    6460    401.79803   -470.67742    1217.2901   -465.12022    4604.9295    8.6823495    7.5832467    13.069271    12.282522            0          108            0            0 
    6470     435.3308   -471.14345    1216.6514   -465.12246     3966.098    8.6869077    7.5830892    13.068819    12.276757            0          108            0            0 
    6480    432.47039   -471.10615    1216.0839   -465.12473    5080.8126    8.6909616    7.5832437    13.068486    12.271093            0          108            0            0 
    6490    391.10767   -470.53514    1215.6092    -465.1258    7928.5237    8.6943551    7.5836718    13.068443    12.265651            0          108            0            0 
    6500    351.40251   -469.98598    1215.2775   -465.12579    10347.166    8.6967283    7.5843499    13.069007    12.260679            0          108            0            0 
Setting up Verlet run ...
  Unit style    : metal
  Current step  : 6500
  Time step     : 0.001
Per MPI rank memory allocation (min/avg/max) = 5.148 | 5.148 | 5.148 Mbytes
Step Temp E_pair Volume TotEng Press Density Lx Ly Lz v_cNi v_cCo v_cFe v_cTi 
    6500    351.40251   -469.98598    1215.2775   -465.12579    10347.166    8.6967283    7.5843499    13.069007    12.260679            0          108            0            0 
    6510    361.97898   -470.13315    1215.1304   -465.12668    9992.2584    8.6977809    7.5852232    13.070472     12.25641            0          108            0            0 
    6520    416.73002    -470.8934    1215.1633   -465.12968    7287.9135    8.6975461    7.5861693    13.072943    12.252895            0          108            0            0 
    6530     453.1607   -471.40156    1215.3326   -465.13397    5291.9104    8.6963341    7.5870417    13.076335    12.250015            0          108            0            0 
    6540    428.58991   -471.06626    1215.6069    -465.1385    6109.8125    8.6943715    7.5877656     13.08053    12.247683            0          108            0            0 
    6550    369.59499    -470.2553     1216.001   -465.14349    8522.1434    8.6915537    7.5883753     13.08552    12.245997            0          108            0            0 
    6560    333.94585   -469.76873    1216.5562   -465.14998    9632.9244    8.6875873     7.588952    13.091392    12.245162            0          108            0            0 
    6570    348.02439   -469.97157    1217.2921    -465.1581    7948.3698    8.6823354    7.5895317    13.098192    12.245273            0          108            0            0 
    6580    396.28739   -470.64759    1218.1805    -465.1666    4229.5013    8.6760037    7.5900571    13.105843    12.246208            0          108            0            0 
    6590    446.24556   -471.34623     1219.157   -465.17428    308.00236    8.6690545    7.5903892    13.114155    12.247721            0          108            0            0 
    6600     468.5865    -471.6619    1220.1524   -465.18096   -2228.3144    8.6619819    7.5903649    13.122905    12.249588            0          108            0            0 
Setting up Verlet run ...
  Unit style    : metal
  Current step  : 6600
  Time step     : 0.001
Per MPI rank memory allocation (min/avg/max) = 5.148 | 5.148 | 5.148 Mbytes
Step Temp E_pair Volume TotEng Press Density Lx Ly Lz v_cNi v_cCo v_cFe v_cTi 
    6600     468.5865    -471.6619    1220.1524   -465.18096   -2228.3144    8.6619819    7.5903649    13.122905    12.249588            0          108            0            0 
    6610    450.62925   -471.41973    1221.1212   -465.18715   -2783.4067    8.6551104    7.5898723    13.131904    12.251707            0          108            0            0 
    6620    404.56405   -470.78844    1222.0516   -465.19298   -2095.1298    8.6485208    7.5888978    13.141037    12.254094            0          108            0            0 
    6630    366.53034   -470.26737    1222.9533   -465.19795   -1875.7475    8.6421438    7.5875152    13.150214    12.256811            0          108            0            0 
    6640    364.45271   -470.24211     1223.828   -465.20142   -3236.8115    8.6359674    7.5858135     13.15927    12.259885            0          108            0            0 
    6650    384.49705   -470.52061    1224.6505    -465.2027   -5429.6661    8.6301672    7.5838369    13.167922     12.26326            0          108            0            0 
    6660    394.43498   -470.65729    1225.3815   -465.20193   -6895.7165    8.6250185    7.5816055    13.175828    12.266827            0          108            0            0 
    6670     380.9618   -470.46899    1225.9936   -465.19997   -7036.3273    8.6207124    7.5791653    13.182717     12.27049            0          108            0            0 
    6680    363.64041   -470.22726    1226.4812   -465.19781   -6862.6618    8.6172856    7.5765993    13.188433    12.274205            0          108            0            0 
    6690    370.87838   -470.32585    1226.8435   -465.19629   -7778.8359    8.6147408    7.5739876    13.192888    12.277917            0          108            0            0 
    6700    400.60419   -470.73678    1227.0618   -465.19609   -9646.1434    8.6132079    7.5713547    13.195989    12.281486            0          108            0            0 
Setting up Verlet run ...
  Unit style    : metal
  Current step  : 6700
  Time step     : 0.001
Per MPI rank memory allocation (min/avg/max) = 5.148 | 5.148 | 5.148 Mbytes
Step Temp E_pair Volume TotEng Press Density Lx Ly Lz v_cNi v_cCo v_cFe v_cTi 
    6700    400.60419   -470.73678    1227.0618   -465.19609   -9646.1434    8.6132079    7.5713547    13.195989    12.281486            0          108            0            0 
    6710    421.53034    -471.0279     1227.102   -465.19778   -10887.162    8.6129254    7.5686639     13.19764    12.284718            0          108            0            0 
    6720    413.06489    -470.9146    1226.9411   -465.20156   -10387.816    8.6140552    7.5658657    13.197819    12.287483            0          108            0            0 
    6730    389.78244    -470.5981    1226.5857   -465.20709   -8733.5596     8.616551    7.5629442    13.196618    12.289787            0          108            0            0 
    6740    378.52299   -470.44917     1226.063   -465.21388   -7258.2749    8.6202244    7.5599105    13.194213    12.291719            0          108            0            0 
    6750    384.18916   -470.53513    1225.3984   -465.22147   -6464.9412       8.6249    7.5567636    13.190809    12.293344            0          108            0            0 
    6760    394.02292   -470.67906    1224.6062    -465.2294   -5949.7269    8.6304795    7.5534706    13.186617    12.294659            0          108            0            0 
    6770     400.9338    -470.7826    1223.6958   -465.23735   -5261.7122       8.6369    7.5499911    13.181848    12.295629            0          108            0            0 
    6780    402.16911   -470.80722    1222.6799   -465.24489   -4073.0429    8.6440764    7.5463117    13.176699    12.296214            0          108            0            0 
    6790    394.01229    -470.7007    1221.5803   -465.25118   -2205.3392    8.6518571    7.5424638    13.171365    12.296401            0          108            0            0 
    6800     382.6716    -470.5484    1220.4308   -465.25573   -37.347029    8.6600059     7.538513    13.166056    12.296225            0          108            0            0 
Setting up Verlet run ...
  Unit style    : metal
  Current step  : 6800
  Time step     : 0.001
Per MPI rank memory allocation (min/avg/max) = 5.148 | 5.148 | 5.148 Mbytes
Step Temp E_pair Volume TotEng Press Density Lx Ly Lz v_cNi v_cCo v_cFe v_cTi 
    6800     382.6716    -470.5484    1220.4308   -465.25573   -37.347029    8.6600059     7.538513    13.166056    12.296225            0          108            0            0 
    6810    381.36763    -470.5337    1219.2704   -465.25906    1747.2532    8.6682483    7.5345279    13.160965    12.295784            0          108            0            0 
    6820    391.53545   -470.67718    1218.1316   -465.26192    2985.8247    8.6763518    7.5305575    13.156217    12.295213            0          108            0            0 
    6830    404.28108   -470.85608    1217.0382   -465.26454    4029.5195    8.6841466    7.5266385    13.151866    12.294639            0          108            0            0 
    6840    411.55194   -470.95891    1216.0104    -465.2668    5232.6708    8.6914865    7.5228208    13.147956    12.294146            0          108            0            0 
    6850    408.39738   -470.91687    1215.0713    -465.2684    6780.1504     8.698204    7.5191793    13.144553    12.293782            0          108            0            0 
    6860    398.10211   -470.77542    1214.2499   -465.26934    8480.6765    8.7040885    7.5158101    13.141745    12.293605            0          108            0            0 
    6870    390.92481   -470.67706    1213.5775   -465.27025    9808.0956     8.708911    7.5128172    13.139598      12.2937            0          108            0            0 
    6880    391.75607   -470.69017    1213.0792   -465.27185     10449.97    8.7124881    7.5102936    13.138134    12.294152            0          108            0            0 
    6890    397.47568   -470.77215    1212.7685   -465.27473    10557.006      8.71472    7.5083103    13.137326    12.295006            0          108            0            0 
    6900    397.09163   -470.77103      1212.65   -465.27893     10678.15    8.7155718    7.5069254     13.13713    12.296256            0          108            0            0 
Setting up Verlet run ...
  Unit style    : metal
  Current step  : 6900
  Time step     : 0.001
Per MPI rank memory allocation (min/avg/max) = 5.148 | 5.148 | 5.148 Mbytes
Step Temp E_pair Volume TotEng Press Density Lx Ly Lz v_cNi v_cCo v_cFe v_cTi 
    6900    397.09163   -470.77103      1212.65   -465.27893     10678.15    8.7155718    7.5069254     13.13713    12.296256            0          108            0            0 
    6910    385.22445   -470.61224    1212.7283   -465.28426    11073.783     8.715009    7.5062119    13.137497    12.297875            0          108            0            0 
    6920    375.63309   -470.48654    1213.0118   -465.29122    11125.038    8.7129721    7.5062689    13.138367    12.299842            0          108            0            0 
    6930    380.28789   -470.56008    1213.5027   -465.30038    10253.382    8.7094474    7.5071881    13.139637    12.302124            0          108            0            0 
    6940    392.78692   -470.74414    1214.1876   -465.31157     8650.732    8.7045348    7.5090081    13.141144    12.304672            0          108            0            0 
    6950    403.82568   -470.90944    1215.0401   -465.32419    6809.4726    8.6984279    7.5117033    13.142701    12.307435            0          108            0            0 
    6960    411.32363   -471.02658    1216.0285   -465.33763    4935.7863    8.6913572    7.5152079    13.144151    12.310346            0          108            0            0 
    6970    415.35623   -471.09587    1217.1203   -465.35114    3075.5729    8.6835612    7.5194339    13.145405    12.313297            0          108            0            0 
    6980     411.9523   -471.06157    1218.2824   -465.36393    1415.8562    8.6752777    7.5242748    13.146453    12.316143            0          108            0            0 
    6990    395.96798   -470.85201    1219.4857   -465.37544    232.65571    8.6667178    7.5296181    13.147335    12.318733            0          108            0            0 
    7000    370.92529   -470.51576    1220.7084   -465.38555   -591.15583    8.6580368    7.5353688    13.148121    12.320937            0          108            0            0 
Setting up Verlet run ...
  Unit style    : metal
  Current step  : 7000
  Time step     : 0.001
Per MPI rank memory allocation (min/avg/max) = 5.148 | 5.148 | 5.148 Mbytes
Step Temp E_pair Volume TotEng Press Density Lx Ly Lz v_cNi v_cCo v_cFe v_cTi 
    7000    370.92529   -470.51576    1220.7084   -465.38555   -591.15583    8.6580368    7.5353688    13.148121    12.320937            0          108            0            0 
    7010     353.1321   -470.27834    1221.9343   -465.39423   -1735.6089     8.649351    7.5414461    13.148885    12.322655            0          108            0            0 
    7020    356.63562   -470.33362    1223.1406   -465.40105   -3798.5934    8.6408207    7.5477445    13.149649    12.323811            0          108            0            0 
    7030    376.07754   -470.60682    1224.2886   -465.40535   -6486.7233    8.6327184    7.5541027    13.150356    12.324332            0          108            0            0 
    7040    393.15485   -470.84487    1225.3283   -465.40721   -8844.9939     8.625393    7.5603236    13.150893    12.324146            0          108            0            0 
    7050    396.27287   -470.88833    1226.2152   -465.40754   -10219.697    8.6191547    7.5662234    13.151168    12.323192            0          108            0            0 
    7060    391.47918   -470.82208     1226.921   -465.40759   -10809.517    8.6141961    7.5716641    13.151151    12.321441            0          108            0            0 
    7070    390.06701   -470.80343    1227.4315   -465.40848   -11201.694    8.6106137    7.5765535    13.150878    12.318869            0          108            0            0 
    7080    391.47205   -470.82547    1227.7366   -465.41108   -11548.405    8.6084737    7.5808339    13.150398    12.315423            0          108            0            0 
    7090    387.91783   -470.78112    1227.8282   -465.41589   -11561.355    8.6078315    7.5844832    13.149751    12.311021            0          108            0            0 
    7100    381.69556   -470.70204     1227.704   -465.42287   -11201.614    8.6087025     7.587514    13.148942    12.305616            0          108            0            0 
Setting up Verlet run ...
  Unit style    : metal
  Current step  : 7100
  Time step     : 0.001
Per MPI rank memory allocation (min/avg/max) = 5.148 | 5.148 | 5.148 Mbytes
Step Temp E_pair Volume TotEng Press Density Lx Ly Lz v_cNi v_cCo v_cFe v_cTi 
    7100    381.69556   -470.70204     1227.704   -465.42287   -11201.614    8.6087025     7.587514    13.148942    12.305616            0          108            0            0 
    7110     380.1006   -470.68855    1227.3684   -465.43144   -10627.991    8.6110564     7.589954    13.147918    12.299255            0          108            0            0 
    7120    379.17166   -470.68489    1226.8307   -465.44063   -9680.8666    8.6148306     7.591832     13.14657    12.292085            0          108            0            0 
    7130    372.84015   -470.60622    1226.1074   -465.44953   -8202.0589    8.6199125    7.5931928    13.144771    12.284318            0          108            0            0 
    7140    365.56489   -470.51376    1225.2245   -465.45769   -6505.4888    8.6261237    7.5941129    13.142411     12.27619            0          108            0            0 
    7150    367.15558   -470.54334     1224.212   -465.46527   -5112.9183    8.6332581     7.594689    13.139413    12.267913            0          108            0            0 
    7160    381.86621   -470.75438    1223.0948   -465.47285   -4201.4067    8.6411439    7.5950093    13.135726     12.25964            0          108            0            0 
    7170    402.09054   -471.04206    1221.8899   -465.48081   -3383.6941    8.6496648    7.5951384    13.131313    12.251471            0          108            0            0 
    7180    413.50704   -471.20792    1220.6134   -465.48877   -1974.0247     8.658711    7.5951298    13.126143    12.243505            0          108            0            0 
    7190    407.50145   -471.13198    1219.2918   -465.49589    399.29076    8.6680962    7.5950579    13.120205      12.2359            0          108            0            0 
    7200    386.63196   -470.84882    1217.9689   -465.50138     3462.742     8.677511    7.5950369    13.113538    12.228872            0          108            0            0 
Setting up Verlet run ...
  Unit style    : metal
  Current step  : 7200
  Time step     : 0.001
Per MPI rank memory allocation (min/avg/max) = 5.148 | 5.148 | 5.148 Mbytes
Step Temp E_pair Volume TotEng Press Density Lx Ly Lz v_cNi v_cCo v_cFe v_cTi 
    7200    386.63196   -470.84882    1217.9689   -465.50138     3462.742     8.677511    7.5950369    13.113538    12.228872            0          108            0            0 
    7210    364.30488   -470.54376    1216.7002   -465.50512    6350.8917     8.686559    7.5952011    13.106255    12.222659            0          108            0            0 
    7220    359.64053   -470.48217     1215.538   -465.50804    8119.5635    8.6948646    7.5956559    13.098522    12.217461            0          108            0            0 
    7230    380.77612   -470.77801    1214.5148   -465.51156    8527.8167    8.7021898    7.5964359    13.090511    12.213393            0          108            0            0 
    7240    409.05063   -471.17373    1213.6404   -465.51622    8571.2557    8.7084594    7.5975087     13.08237    12.210471            0          108            0            0 
    7250    412.36771   -471.22416     1212.919   -465.52077     9643.506    8.7136389    7.5988251    13.074282    12.208646            0          108            0            0 
    7260    385.41302   -470.85429    1212.3718   -465.52371    11825.956    8.7175718    7.6003612    13.066544    12.207897            0          108            0            0 
    7270    359.34216   -470.49552     1212.038   -465.52552     13659.37    8.7199724    7.6021093    13.059541    12.208273            0          108            0            0 
    7280    360.74384   -470.51768    1211.9507   -465.52829    13833.959    8.7206006    7.6040362    13.053601    12.209853            0          108            0            0 
    7290    382.01866   -470.81714    1212.1153    -465.5335    12539.301    8.7194169     7.606062    13.048881    12.212674            0          108            0            0 
    7300    398.21335   -471.04876     1212.512   -465.54114     10930.45     8.716564    7.6080794    13.045377    12.216713            0          108            0            0 
Setting up Verlet run ...
  Unit style    : metal
  Current step  : 7300
  Time step     : 0.001
Per MPI rank memory allocation (min/avg/max) = 5.148 | 5.148 | 5.148 Mbytes
Step Temp E_pair Volume TotEng Press Density Lx Ly Lz v_cNi v_cCo v_cFe v_cTi 
    7300    398.21335   -471.04876     1212.512   -465.54114     10930.45     8.716564    7.6080794    13.045377    12.216713            0          108            0            0 
    7310    397.76212   -471.05193     1213.115   -465.55054    9767.7872    8.7122311     7.609992    13.043044    12.221903            0          108            0            0 
    7320    388.95156   -470.94061    1213.9049   -465.56109    8883.4951    8.7065619    7.6117338    13.041899    12.228136            0          108            0            0 
    7330    384.59727   -470.89164    1214.8666   -465.57234    7730.9836    8.6996696     7.613261    13.042024    12.235251            0          108            0            0 
    7340    388.13254   -470.95209    1215.9803   -465.58389    6043.2276    8.6917018     7.614539    13.043494    12.243032            0          108            0            0 
    7350    392.66518   -471.02616    1217.2168   -465.59527    4000.1785    8.6828729    7.6155369    13.046305    12.251235            0          108            0            0 
    7360    394.28345   -471.05937    1218.5398    -465.6061    1790.7277     8.673445     7.616224    13.050339    12.259655            0          108            0            0 
    7370    397.85072   -471.11873    1219.9094   -465.61613   -631.32064    8.6637073    7.6165641    13.055374    12.268153            0          108            0            0 
    7380    401.76311   -471.18152    1221.2811    -465.6248   -3048.5506    8.6539766    7.6165168    13.061109    12.276631            0          108            0            0 
    7390    394.63065   -471.08946    1222.6106   -465.63138   -4909.8096     8.644566    7.6160597    13.067213    12.284991            0          108            0            0 
    7400    374.98451   -470.82179    1223.8628   -465.63545   -6115.3587    8.6357219     7.615219     13.07339    12.293119            0          108            0            0 
Setting up Verlet run ...
  Unit style    : metal
  Current step  : 7400
  Time step     : 0.001
Per MPI rank memory allocation (min/avg/max) = 5.148 | 5.148 | 5.148 Mbytes
Step Temp E_pair Volume TotEng Press Density Lx Ly Lz v_cNi v_cCo v_cFe v_cTi 
    7400    374.98451   -470.82179    1223.8628   -465.63545   -6115.3587    8.6357219     7.615219     13.07339    12.293119            0          108            0            0 
    7410    356.46585   -470.56721    1225.0129   -465.63699   -7209.5493    8.6276138    7.6140712    13.079389    12.300883            0          108            0            0 
    7420    348.62029   -470.45804    1226.0385   -465.63633   -8554.4417    8.6203967    7.6127089    13.084971    12.308132            0          108            0            0 
    7430     348.6286   -470.45607     1226.913   -465.63425     -9908.28    8.6142523    7.6112043    13.089898    12.314708            0          108            0            0 
    7440    351.71747   -470.49663    1227.6096   -465.63209   -11014.506    8.6093646    7.6095923    13.093963    12.320484            0          108            0            0 
    7450    358.71287    -470.5924    1228.1052    -465.6311    -12001.97    8.6058899    7.6078682     13.09701    12.325383            0          108            0            0 
    7460    374.85402   -470.81686    1228.3788   -465.63231   -13164.146    8.6039731    7.6059914    13.098926    12.329368            0          108            0            0 
    7470    396.95516   -471.12677    1228.4067   -465.63655   -14277.016    8.6037778    7.6038887     13.09963    12.332395            0          108            0            0 
    7480    406.20152   -471.26202    1228.1675   -465.64391   -14413.109    8.6054534    7.6014756     13.09911    12.334397            0          108            0            0 
    7490    388.55817   -471.02747    1227.6582   -465.65339   -12925.487    8.6090236    7.5987011    13.097483    12.335316            0          108            0            0 
    7500    357.10973   -470.60254    1226.9042   -465.66342   -10455.167    8.6143142    7.5955784    13.095008    12.335139            0          108            0            0 
Setting up Verlet run ...
  Unit style    : metal
  Current step  : 7500
  Time step     : 0.001
Per MPI rank memory allocation (min/avg/max) = 5.148 | 5.148 | 5.148 Mbytes
Step Temp E_pair Volume TotEng Press Density Lx Ly Lz v_cNi v_cCo v_cFe v_cTi 
    7500    357.10973   -470.60254    1226.9042   -465.66342   -10455.167    8.6143142    7.5955784    13.095008    12.335139            0          108            0            0 
    7510    342.58373   -470.41163    1225.9483   -465.67341   -8440.8638    8.6210309    7.5921603    13.092003    12.333908            0          108            0            0 
    7520    357.14753   -470.62371    1224.8262   -465.68406   -7463.3632    8.6289291    7.5884799    13.088719    12.331688            0          108            0            0 
    7530    379.40285   -470.94315    1223.5568   -465.69569    -6614.237     8.637881     7.584521    13.085312    12.328548            0          108            0            0 
    7540    386.69551   -471.05586    1222.1574   -465.70754    -4911.127    8.6477717    7.5802481    13.081934     12.32457            0          108            0            0 
    7550    382.51319   -471.00916    1220.6593   -465.71868   -2503.0452    8.6583854    7.5756513    13.078822    12.319862            0          108            0            0 
    7560    381.73831   -471.00877    1219.1059   -465.72901   -79.533011    8.6694179    7.5707531    13.076284    12.314534            0          108            0            0 
    7570    387.39834   -471.09705    1217.5418   -465.73901    2088.4944     8.680555    7.5655865    13.074633    12.308688            0          108            0            0 
    7580    392.15942   -471.17286    1216.0075   -465.74897    4169.3393    8.6915078    7.5601852    13.074129    12.302434            0          108            0            0 
    7590    389.24772   -471.14214     1214.542   -465.75852    6370.2917    8.7019952     7.554597    13.074948    12.295926            0          108            0            0 
    7600    378.80246   -471.00595    1213.1862    -465.7668    8736.3413    8.7117197    7.5489025    13.077183    12.289365            0          108            0            0 
Setting up Verlet run ...
  Unit style    : metal
  Current step  : 7600
  Time step     : 0.001
Per MPI rank memory allocation (min/avg/max) = 5.148 | 5.148 | 5.148 Mbytes
Step Temp E_pair Volume TotEng Press Density Lx Ly Lz v_cNi v_cCo v_cFe v_cTi 
    7600    378.80246   -471.00595    1213.1862    -465.7668    8736.3413    8.7117197    7.5489025    13.077183    12.289365            0          108            0            0 
    7610    366.68496   -470.84458    1211.9839   -465.77302    11072.032    8.7203618    7.5432271    13.080855    12.282974            0          108            0            0 
    7620    358.68772   -470.73796     1210.978   -465.77701    13068.226    8.7276058    7.5377421    13.085934    12.276943            0          108            0            0 
    7630    360.91167   -470.77139     1210.205   -465.77968    14315.348      8.73318    7.5326427    13.092363    12.271384            0          108            0            0 
    7640    377.87051   -471.00907    1209.6883   -465.78281    14509.187    8.7369102    7.5280977    13.100078    12.266323            0          108            0            0 
    7650    400.13579    -471.3213    1209.4332   -465.78709    13991.536    8.7387533     7.524211    13.108978     12.26174            0          108            0            0 
    7660    412.01844   -471.48996    1209.4329    -465.7914    13449.454    8.7387557    7.5210356    13.118881    12.257654            0          108            0            0 
    7670    408.17851   -471.43982    1209.6797   -465.79437    13216.547    8.7369722     7.518618     13.12951    12.254169            0          108            0            0 
    7680    390.89942   -471.20235    1210.1714   -465.79588    13276.123    8.7334225    7.5170293    13.140546    12.251443            0          108            0            0 
    7690    367.52281   -470.88046    1210.9106   -465.79731    13338.545    8.7280915     7.516366    13.151708    12.249602            0          108            0            0 
    7700    349.47189   -470.63404    1211.8995   -465.80056    12843.082    8.7209691    7.5167194    13.162804    12.248697            0          108            0            0 
Setting up Verlet run ...
  Unit style    : metal
  Current step  : 7700
  Time step     : 0.001
Per MPI rank memory allocation (min/avg/max) = 5.148 | 5.148 | 5.148 Mbytes
Step Temp E_pair Volume TotEng Press Density Lx Ly Lz v_cNi v_cCo v_cFe v_cTi 
    7700    349.47189   -470.63404    1211.8995   -465.80056    12843.082    8.7209691    7.5167194    13.162804    12.248697            0          108            0            0 
    7710    343.98361   -470.56403    1213.1306   -465.80645    11376.823    8.7121189    7.5181218    13.173715    12.248699            0          108            0            0 
    7720    350.05642   -470.65569    1214.5791   -465.81411    8886.9884    8.7017293    7.5205132    13.184357    12.249529            0          108            0            0 
    7730    367.23135   -470.90099    1216.2012   -465.82187    5512.7393    8.6901236    7.5237516    13.194631    12.251061            0          108            0            0 
    7740    388.61034     -471.203     1217.937   -465.82819    1866.2014    8.6777381    7.5276445    13.204418    12.253114            0          108            0            0 
    7750    393.89675   -471.28008    1219.7219   -465.83216   -992.51006    8.6650391    7.5319894      13.2136    12.255471            0          108            0            0 
    7760    376.52694   -471.04174    1221.5038   -465.83406   -2784.2015    8.6523988    7.5366175    13.222113     12.25794            0          108            0            0 
    7770    357.89216   -470.78435    1223.2475    -465.8344   -4469.1523    8.6400651     7.541402    13.229954     12.26038            0          108            0            0 
    7780    360.52697   -470.81924    1224.9191   -465.83285   -7043.6325    8.6282749    7.5462117    13.237109    12.262676            0          108            0            0 
    7790    379.90171    -471.0831    1226.4692   -465.82875   -10307.806    8.6173694    7.5508632    13.243502    12.264708            0          108            0            0 
    7800    393.80344   -471.26914    1227.8371   -465.82251   -13117.387    8.6077693    7.5551313    13.248997    12.266361            0          108            0            0 
Setting up Verlet run ...
  Unit style    : metal
  Current step  : 7800
  Time step     : 0.001
Per MPI rank memory allocation (min/avg/max) = 5.148 | 5.148 | 5.148 Mbytes
Step Temp E_pair Volume TotEng Press Density Lx Ly Lz v_cNi v_cCo v_cFe v_cTi 
    7800    393.80344   -471.26914    1227.8371   -465.82251   -13117.387    8.6077693    7.5551313    13.248997    12.266361            0          108            0            0 
    7810    388.65556   -471.19138    1228.9693   -465.81595   -14621.445    8.5998389    7.5588068    13.253477    12.267554            0          108            0            0 
    7820     367.3897   -470.89218    1229.8356   -465.81087   -14852.931    8.5937818    7.5617457    13.256894    12.268266            0          108            0            0 
    7830    344.56351   -470.57381     1230.428   -465.80821   -14574.138    8.5896438    7.5638789    13.259275    12.268511            0          108            0            0 
    7840    337.56566   -470.47709    1230.7484   -465.80828   -14666.039    8.5874075    7.5651844    13.260681    12.268288            0          108            0            0 
    7850     351.0173    -470.6662    1230.7928   -465.81134   -15346.888    8.5870982    7.5656519    13.261119    12.267566            0          108            0            0 
    7860    371.60342   -470.95727    1230.5476   -465.81768    -15931.34    8.5888088    7.5652779    13.260497    12.266304            0          108            0            0 
    7870    381.59922   -471.10511    1230.0022   -465.82727   -15533.452    8.5926175    7.5640949    13.258658    12.264486            0          108            0            0 
    7880    375.86096   -471.03782    1229.1634   -465.83935   -13917.479    8.5984813    7.5622027    13.255459    12.262147            0          108            0            0 
    7890    362.14775    -470.8614    1228.0603   -465.85259   -11561.153    8.6062044    7.5597716    13.250832    12.259362            0          108            0            0 
    7900    354.36814   -470.76716    1226.7357   -465.86595   -9251.7523    8.6154973    7.5570038    13.244783     12.25622            0          108            0            0 
Setting up Verlet run ...
  Unit style    : metal
  Current step  : 7900
  Time step     : 0.001
Per MPI rank memory allocation (min/avg/max) = 5.148 | 5.148 | 5.148 Mbytes
Step Temp E_pair Volume TotEng Press Density Lx Ly Lz v_cNi v_cCo v_cFe v_cTi 
    7900    354.36814   -470.76716    1226.7357   -465.86595   -9251.7523    8.6154973    7.5570038    13.244783     12.25622            0          108            0            0 
    7910    361.44494   -470.87838    1225.2318   -465.87929   -7445.2856    8.6260725    7.5540759    13.237363    12.252803            0          108            0            0 
    7920    377.24811   -471.11024    1223.5828   -465.89259   -5853.0468     8.637698    7.5511072    13.228644    12.249191            0          108            0            0 
    7930    389.89836   -471.29807    1221.8194   -465.90545   -3877.2656    8.6501641    7.5481749    13.218707    12.245488            0          108            0            0 
    7940    390.13674   -471.31284    1219.9794   -465.91692   -1163.4671    8.6632104    7.5453507    13.207658    12.241855            0          108            0            0 
    7950    375.91005   -471.12494    1218.1135   -465.92579      2221.12     8.676481    7.5427306    13.195648    12.238507            0          108            0            0 
    7960    357.25845   -470.87255    1216.2836   -465.93137    5747.0002    8.6895342    7.5404418    13.182885    12.235666            0          108            0            0 
    7970    347.27679   -470.73709     1214.554   -465.93397     8783.914    8.7019088    7.5386186    13.169626    12.233526            0          108            0            0 
    7980    349.62692   -470.76998    1212.9801   -465.93435    11085.127    8.7132004    7.5373676    13.156147    12.232219            0          108            0            0 
    7990    360.85552   -470.92438     1211.604   -465.93345    12696.998    8.7230964    7.5367486    13.142719     12.23183            0          108            0            0 
    8000    374.18514   -471.10723    1210.4557   -465.93193    13809.537    8.7313715    7.5367687    13.129591    12.232423            0          108            0            0 
Setting up Verlet run ...
  Unit style    : metal
  Current step  : 8000
  Time step     : 0.001
Per MPI rank memory allocation (min/avg/max) = 5.148 | 5.148 | 5.148 Mbytes
Step Temp E_pair Volume TotEng Press Density Lx Ly Lz v_cNi v_cCo v_cFe v_cTi 
    8000    374.18514   -471.10723    1210.4557   -465.93193    13809.537    8.7313715    7.5367687    13.129591    12.232423            0          108            0            0 
    8010    384.31228   -471.24531    1209.5561   -465.92995    14587.367    8.7378657    7.5373924    13.117005    12.234048            0          108            0            0 
    8020    389.63381    -471.3164    1208.9199   -465.92744    15168.245    8.7424637    7.5385667    13.105217    12.236706            0          108            0            0 
    8030    386.47674   -471.26977    1208.5589   -465.92447    15785.023     8.745075    7.5402451      13.0945    12.240339            0          108            0            0 
    8040    375.68595   -471.11773    1208.4852   -465.92168    16357.508    8.7456087      7.54239    13.085118    12.244884            0          108            0            0 
    8050    368.22425   -471.01325    1208.7094    -465.9204    16343.561    8.7439863    7.5449574    13.077293    12.250315            0          108            0            0 
    8060    371.12173   -471.05449     1209.232   -465.92156    15367.461     8.740207    7.5478806    13.071152    12.256622            0          108            0            0 
    8070    377.65831   -471.14828    1210.0373   -465.92495    13700.088    8.7343903    7.5510748     13.06672    12.263753            0          108            0            0 
    8080    378.04185   -471.15844    1211.0975   -465.92981    11882.155    8.7267446    7.5544584    13.063953    12.271599            0          108            0            0 
    8090    371.23577   -471.06995    1212.3814   -465.93545    10118.442    8.7175032    7.5579701    13.062773     12.28001            0          108            0            0 
    8100    362.77949    -470.9588    1213.8581   -465.94126    8243.5435    8.7068978    7.5615723    13.063087    12.288815            0          108            0            0 
Setting up Verlet run ...
  Unit style    : metal
  Current step  : 8100
  Time step     : 0.001
Per MPI rank memory allocation (min/avg/max) = 5.148 | 5.148 | 5.148 Mbytes
Step Temp E_pair Volume TotEng Press Density Lx Ly Lz v_cNi v_cCo v_cFe v_cTi 
    8100    362.77949    -470.9588    1213.8581   -465.94126    8243.5435    8.7068978    7.5615723    13.063087    12.288815            0          108            0            0 
    8110     362.1854   -470.95591     1215.494   -465.94658    5839.6646    8.6951793    7.5652394    13.064768    12.297829            0          108            0            0 
    8120    374.06149   -471.12406    1217.2456   -465.95047    2699.4861    8.6826673    7.5689358    13.067605    12.306863            0          108            0            0 
    8130    389.06172   -471.33281    1219.0562   -465.95176   -767.12464    8.6697712    7.5726022    13.071295    12.315725            0          108            0            0 
    8140     394.1918   -471.40193     1220.863   -465.94993   -3884.8532    8.6569402    7.5761665    13.075492    12.324219            0          108            0            0 
    8150    384.40771   -471.26218    1222.6087    -465.9455   -6221.3808    8.6445798    7.5795664    13.079893    12.332153            0          108            0            0 
    8160    364.03527   -470.97435    1224.2489   -465.93944   -7789.9614    8.6329981     7.582768    13.084286     12.33934            0          108            0            0 
    8170    342.79222   -470.67384    1225.7527   -465.93274   -8979.9889    8.6224068    7.5857692    13.088531    12.345603            0          108            0            0 
    8180    331.39812   -470.50955    1227.0956   -465.92604   -10341.764    8.6129706    7.5885841    13.092504    12.350796            0          108            0            0 
    8190    338.50611   -470.60159    1228.2497   -465.91977   -12322.629    8.6048774    7.5912188    13.096031    12.354793            0          108            0            0 
    8200    360.50883   -470.90064    1229.1765    -465.9145   -14723.175    8.5983894    7.5936513    13.098885    12.357462            0          108            0            0 
Setting up Verlet run ...
  Unit style    : metal
  Current step  : 8200
  Time step     : 0.001
Per MPI rank memory allocation (min/avg/max) = 5.148 | 5.148 | 5.148 Mbytes
Step Temp E_pair Volume TotEng Press Density Lx Ly Lz v_cNi v_cCo v_cFe v_cTi 
    8200    360.50883   -470.90064    1229.1765    -465.9145   -14723.175    8.5983894    7.5936513    13.098885    12.357462            0          108            0            0 
    8210    380.23994   -471.17028    1229.8306   -465.91124   -16674.002    8.5938165    7.5958348    13.100831    12.358647            0          108            0            0 
    8220    385.78032   -471.24699    1230.1749   -465.91132   -17470.247    8.5914111    7.5977241    13.101715    12.358199            0          108            0            0 
    8230     379.1269   -471.15919    1230.1931   -465.91555   -17140.702     8.591284    7.5992974      13.1015    12.356027            0          108            0            0 
    8240    367.73783   -471.00965    1229.8896   -465.92353   -16098.025    8.5934038    7.6005466    13.100251    12.352125            0          108            0            0 
    8250    359.32085   -470.90377    1229.2827   -465.93406   -14748.419    8.5976465     7.601451    13.098099     12.34659            0          108            0            0 
    8260    357.72405   -470.89341    1228.3969   -465.94579   -13306.787    8.6038465    7.6019616    13.095201    12.339594            0          108            0            0 
    8270    359.50323   -470.92979    1227.2592   -465.95756    -11683.25    8.6118225    7.6020102    13.091736     12.33135            0          108            0            0 
    8280    361.57347   -470.96959    1225.9004   -465.96873   -9766.2917    8.6213682    7.6015413    13.087904    12.322062            0          108            0            0 
    8290    363.86149   -471.01163    1224.3565   -465.97912   -7557.6331    8.6322395    7.6005383    13.083942    12.311896            0          108            0            0 
    8300    361.56927   -470.98888    1222.6695   -465.98807    -4919.459    8.6441499     7.599021     13.08011    12.300989            0          108            0            0 
Setting up Verlet run ...
  Unit style    : metal
  Current step  : 8300
  Time step     : 0.001
Per MPI rank memory allocation (min/avg/max) = 5.148 | 5.148 | 5.148 Mbytes
Step Temp E_pair Volume TotEng Press Density Lx Ly Lz v_cNi v_cCo v_cFe v_cTi 
    8300    361.56927   -470.98888    1222.6695   -465.98807    -4919.459    8.6441499     7.599021     13.08011    12.300989            0          108            0            0 
    8310    354.43702    -470.8966    1220.8889   -465.99444   -1923.1273    8.6567569    7.5970262    13.076688    12.289515            0          108            0            0 
    8320    354.16716   -470.89624    1219.0698   -465.99781    889.75511    8.6696744    7.5945906     13.07394     12.27772            0          108            0            0 
    8330     363.3036   -471.02338    1217.2641   -465.99859    3306.5814     8.682535    7.5917497    13.072069    12.265878            0          108            0            0 
    8340    367.09661   -471.07402    1215.5174   -465.99676    5857.4458    8.6950117    7.5885552    13.071196    12.254251            0          108            0            0 
    8350    359.09334   -470.95854    1213.8773   -465.99197    8792.2923    8.7067603    7.5850996    13.071396    12.243103            0          108            0            0 
    8360    352.78554   -470.86391    1212.3963   -465.98459    11470.077    8.7173957    7.5815224    13.072713    12.232704            0          108            0            0 
    8370     361.9041   -470.98144    1211.1222     -465.976    13196.338    8.7265662    7.5779805    13.075151    12.223281            0          108            0            0 
    8380    383.51276   -471.27189    1210.0862   -465.96758    13976.887    8.7340373    7.5746089    13.078665    12.214978            0          108            0            0 
    8390    406.04975   -471.57615    1209.3032   -465.96014    14250.252     8.739693    7.5715028    13.083169    12.207877            0          108            0            0 
    8400    419.90147   -471.76185    1208.7788   -465.95426    14464.557    8.7434843    7.5687208    13.088571     12.20203            0          108            0            0 
Setting up Verlet run ...
  Unit style    : metal
  Current step  : 8400
  Time step     : 0.001
Per MPI rank memory allocation (min/avg/max) = 5.148 | 5.148 | 5.148 Mbytes
Step Temp E_pair Volume TotEng Press Density Lx Ly Lz v_cNi v_cCo v_cFe v_cTi 
    8400    419.90147   -471.76185    1208.7788   -465.95426    14464.557    8.7434843    7.5687208    13.088571     12.20203            0          108            0            0 
    8410    415.44761   -471.69626    1208.5182   -465.95027    15089.285    8.7453694    7.5662975    13.094801    12.197502            0          108            0            0 
    8420    388.45774   -471.32102    1208.5339   -465.94832    16297.667    8.7452558      7.56427    13.101831    12.194383            0          108            0            0 
    8430     354.4456   -470.85105    1208.8476   -465.94877    17343.625    8.7429863    7.5627034    13.109646    12.192802            0          108            0            0 
    8440    338.50438   -470.63381    1209.4776   -465.95201    17059.584    8.7384324    7.5616795    13.118171     12.19288            0          108            0            0 
    8450    345.52311   -470.73641    1210.4195   -465.95754    15175.919    8.7316328    7.5612515    13.127231    12.194643            0          108            0            0 
    8460    357.97266   -470.91523    1211.6418   -465.96417    12592.681    8.7228239    7.5614162    13.136597    12.197989            0          108            0            0 
    8470    360.07345   -470.95121    1213.1008    -465.9711    10248.027    8.7123332    7.5621247    13.146084     12.20272            0          108            0            0 
    8480    352.68637     -470.856    1214.7552   -465.97805    8222.0195    8.7004676    7.5633015      13.1556    12.208623            0          108            0            0 
    8490    347.81695   -470.79508    1216.5683   -465.98448    5896.8155    8.6875014    7.5648461    13.165128    12.215501            0          108            0            0 
[...]
Step Temp E_pair Volume TotEng Press Density Lx Ly Lz v_cNi v_cCo v_cFe v_cTi 
  137800    406.42153   -482.24649      1300.45   -476.62534   -14783.462    7.9331276    7.6990299    13.369307    12.634229           29           63            4           12 
  137810     418.1424   -482.43147    1298.6354   -476.64821   -13467.384    7.9442131    7.6974545    13.363975    12.624217           29           63            4           12 
  137820    413.45985   -482.38999    1296.5462    -476.6715   -11094.418     7.957014    7.6957534    13.357325    12.612969           29           63            4           12 
  137830    399.89041   -482.22268    1294.2341   -476.69186     -7878.41    7.9712289    7.6939475    13.349644    12.600678           29           63            4           12 
  137840    386.41074   -482.05074    1291.7672   -476.70636   -4399.7761    7.9864516    7.6920344    13.341295    12.587661           29           63            4           12 
  137850    379.05679    -481.9569    1289.2183   -476.71423   -1183.3746    8.0022415    7.6900231     13.33262    12.574285           29           63            4           12 
  137860    381.24847   -481.98977    1286.6544   -476.71679    1582.5937    8.0181871    7.6879639    13.323894    12.560861           29           63            4           12 
  137870     390.0408    -482.1097    1284.1334   -476.71511    4144.2272    8.0339285    7.6859401     13.31535    12.547597           29           63            4           12 
  137880    400.31554   -482.24617    1281.7079   -476.70947    6735.0794    8.0491317    7.6840346    13.307224    12.534652           29           63            4           12 
  137890    410.24101   -482.37435    1279.4303   -476.70037    9369.8949    8.0634608    7.6822986    13.299785    12.522205           29           63            4           12 
  137900    416.91031    -482.4542     1277.353   -476.68798    12025.862    8.0765742    7.6807472    13.293326    12.510475           29           63            4           12 
Setting up Verlet run ...
  Unit style    : metal
  Current step  : 137900
  Time step     : 0.001
Per MPI rank memory allocation (min/avg/max) = 5.148 | 5.148 | 5.148 Mbytes
Step Temp E_pair Volume TotEng Press Density Lx Ly Lz v_cNi v_cCo v_cFe v_cTi 
  137900    416.91031    -482.4542     1277.353   -476.68798    12025.862    8.0765742    7.6807472    13.293326    12.510475           29           63            4           12 
  137910    414.87344   -482.41195    1275.5282   -476.67391    14627.224    8.0881285    7.6793855    13.288135    12.499699           29           63            4           12 
  137920    403.67427   -482.24317    1274.0065   -476.66002    16961.281    8.0977894    7.6782355    13.284465    12.490106           29           63            4           12 
  137930    394.03375   -482.09847    1272.8321   -476.64866    18646.427    8.1052606    7.6773419    13.282523     12.48187           29           63            4           12 
  137940    396.07365   -482.11989    1272.0367   -476.64186    19547.323    8.1103289    7.6767558    13.282456    12.475086           29           63            4           12 
  137950    401.65033   -482.19589    1271.6372   -476.64073    20057.459    8.1128769    7.6765184    13.284339    12.469785           29           63            4           12 
  137960    400.44519   -482.18335    1271.6429   -476.64486    20337.517    8.1128408    7.6766705    13.288186    12.465984           29           63            4           12 
  137970    401.16415   -482.20271    1272.0575   -476.65427    19830.444    8.1101966    7.6772676    13.293922    12.463698           29           63            4           12 
  137980    411.81353   -482.36344    1272.8698   -476.66771    18240.402    8.1050205    7.6783653    13.301337    12.462923           29           63            4           12 
  137990    420.63525   -482.50114    1274.0492    -476.6834    16206.831    8.0975177    7.6799812    13.310121    12.463616           29           63            4           12 
  138000    413.57338   -482.42018    1275.5565   -476.70011    14477.006     8.087949    7.6820786    13.319974    12.465726           29           63            4           12 
Setting up Verlet run ...
  Unit style    : metal
  Current step  : 138000
  Time step     : 0.001
Per MPI rank memory allocation (min/avg/max) = 5.148 | 5.148 | 5.148 Mbytes
Step Temp E_pair Volume TotEng Press Density Lx Ly Lz v_cNi v_cCo v_cFe v_cTi 
  138000    413.57338   -482.42018    1275.5565   -476.70011    14477.006     8.087949    7.6820786    13.319974    12.465726           29           63            4           12 
  138010    392.67091   -482.14867    1277.3577    -476.7177    13034.018    8.0765445    7.6845859    13.330694     12.46922           29           63            4           12 
  138020    371.91416   -481.87927    1279.4232   -476.73539    11220.899    8.0635056    7.6874282    13.342131    12.474063           29           63            4           12 
  138030    366.13884   -481.81536    1281.7159   -476.75136    8444.2773    8.0490816    7.6905455    13.354096     12.48016           29           63            4           12 
  138040    379.83521   -482.01676    1284.1798   -476.76332    4754.1311    8.0336382    7.6938825    13.366295     12.48732           29           63            4           12 
  138050    399.95541   -482.30119    1286.7408   -476.76947     858.2237    8.0176489    7.6973704    13.378378    12.495259           29           63            4           12 
  138060      411.771   -482.46483    1289.3201    -476.7697   -2563.9524    8.0016098    7.7009312    13.390013    12.503641           29           63            4           12 
  138070    413.21868   -482.48044    1291.8469   -476.76528    -5361.436    7.9859589    7.7044988    13.400926    12.512147           29           63            4           12 
  138080    407.04806   -482.38713    1294.2624   -476.75732   -7699.8514    7.9710546    7.7080221    13.410883    12.520509           29           63            4           12 
  138090    398.37532     -482.257    1296.5165   -476.74714   -9884.7102    7.9571959    7.7114496    13.419667    12.528535           29           63            4           12 
  138100    392.54543   -482.16505    1298.5625   -476.73582   -12055.802    7.9446588    7.7147047    13.427085    12.536082           29           63            4           12 
Setting up Verlet run ...
  Unit style    : metal
  Current step  : 138100
  Time step     : 0.001
Per MPI rank memory allocation (min/avg/max) = 5.148 | 5.148 | 5.148 Mbytes
Step Temp E_pair Volume TotEng Press Density Lx Ly Lz v_cNi v_cCo v_cFe v_cTi 
  138100    392.54543   -482.16505    1298.5625   -476.73582   -12055.802    7.9446588    7.7147047    13.427085    12.536082           29           63            4           12 
  138110    389.60755   -482.11312     1300.354   -476.72453   -14092.727    7.9337133    7.7176718    13.432986    12.543038           29           63            4           12 
  138120    389.50031   -482.10139    1301.8476   -476.71428   -15910.441    7.9246112    7.7202096     13.43727    12.549315           29           63            4           12 
  138130    392.57388   -482.13622    1303.0043   -476.70659   -17463.541    7.9175767    7.7221832    13.439866    12.554829           29           63            4           12 
  138140    390.98795   -482.11005    1303.7915   -476.70236   -18426.741    7.9127956     7.723495    13.440701    12.559501           29           63            4           12 
  138150    377.94772   -481.92969    1304.1897   -476.70236   -18603.653    7.9103798    7.7240986    13.439717    12.563275           29           63            4           12 
  138160    363.69968   -481.73685    1304.1949   -476.70658   -18411.187    7.9103485    7.7239778    13.436945    12.566113           29           63            4           12 
  138170    366.35318   -481.78195    1303.8108   -476.71498   -18452.798    7.9126787    7.7230976    13.432528    12.567975           29           63            4           12 
  138180    387.73797   -482.09035     1303.038   -476.72761   -18635.829    7.9173717    7.7213719    13.426658    12.568825           29           63            4           12 
  138190    408.88894   -482.40019    1301.8758   -476.74491   -18141.345    7.9244396    7.7186864    13.419499    12.568686           29           63            4           12 
  138200    408.56363   -482.41675    1300.3385   -476.76598   -16188.292    7.9338078     7.714964      13.4112    12.567673           29           63            4           12 
Setting up Verlet run ...
  Unit style    : metal
  Current step  : 138200
  Time step     : 0.001
Per MPI rank memory allocation (min/avg/max) = 5.148 | 5.148 | 5.148 Mbytes
Step Temp E_pair Volume TotEng Press Density Lx Ly Lz v_cNi v_cCo v_cFe v_cTi 
  138200    408.56363   -482.41675    1300.3385   -476.76598   -16188.292    7.9338078     7.714964      13.4112    12.567673           29           63            4           12 
  138210    383.48539   -482.09164    1298.4703   -476.78772   -12817.232    7.9452233    7.7102236    13.401971    12.565979           29           63            4           12 
  138220    356.33292    -481.7351    1296.3424   -476.80672   -9115.0086    7.9582645    7.7045926    13.392094    12.563816           29           63            4           12 
  138230    356.29649   -481.75004    1294.0323   -476.82216   -6343.8417    7.9724716    7.6982625    13.381846    12.561352           29           63            4           12 
  138240    382.67583   -482.12706    1291.5992   -476.83433   -4487.3538      7.98749    7.6914269    13.371417    12.558664           29           63            4           12 
  138250    405.18761   -482.44691    1289.0853   -476.84283   -2346.9568    8.0030672    7.6842594    13.360935    12.555753           29           63            4           12 
  138260    406.32532   -482.46584    1286.5373   -476.84603    764.71797    8.0189174    7.6769348    13.350554    12.552644           29           63            4           12 
  138270    401.23286   -482.39288    1284.0188    -476.8435    4197.5867    8.0346456     7.669638    13.340486    12.549455           29           63            4           12 
  138280     406.1894   -482.45405    1281.5988   -476.83611    7185.4178    8.0498175    7.6625445    13.330953    12.546364           29           63            4           12 
  138290    414.26296   -482.55507    1279.3372   -476.82547    9734.8464    8.0640473    7.6558091    13.322148    12.543528           29           63            4           12 
  138300    414.12558    -482.5399    1277.2853    -476.8122    12146.638    8.0770019    7.6495724    13.314248    12.541057           29           63            4           12 
Setting up Verlet run ...
  Unit style    : metal
  Current step  : 138300
  Time step     : 0.001
Per MPI rank memory allocation (min/avg/max) = 5.148 | 5.148 | 5.148 Mbytes
Step Temp E_pair Volume TotEng Press Density Lx Ly Lz v_cNi v_cCo v_cFe v_cTi 
  138300    414.12558    -482.5399    1277.2853    -476.8122    12146.638    8.0770019    7.6495724    13.314248    12.541057           29           63            4           12 
  138310    404.65812   -482.39447    1275.4902   -476.79771    14439.345    8.0883696     7.643966    13.307421    12.539045           29           63            4           12 
  138320     390.4359   -482.18377    1273.9958   -476.78372    16443.201    8.0978575    7.6391147    13.301801    12.537603           29           63            4           12 
  138330    379.76164   -482.02429    1272.8397   -476.77187    17940.606    8.1052125    7.6351378    13.297429    12.536871           29           63            4           12 
  138340    381.47005   -482.03957    1272.0495   -476.76352    18832.191    8.1102473    7.6321524    13.294228    12.537007           29           63            4           12 
  138350    392.32084   -482.18616    1271.6413   -476.76003    19335.508    8.1128505    7.6302674    13.292045    12.538138           29           63            4           12 
  138360    399.99736   -482.29402    1271.6239   -476.76172    19620.585     8.112962    7.6295673    13.290749     12.54034           29           63            4           12 
  138370    404.29065   -482.36061     1272.001   -476.76893    19320.038    8.1105563     7.630096    13.290278    12.543634           29           63            4           12 
  138380    413.27552   -482.49729    1272.7653   -476.78134     18059.16    8.1056858    7.6318475    13.290615    12.547973           29           63            4           12 
  138390    420.52216   -482.61379    1273.8918   -476.79762    16243.937    8.0985182    7.6347732    13.291733    12.553211           29           63            4           12 
  138400    411.73626   -482.51086    1275.3455    -476.8162    14624.257    8.0892872    7.6388085     13.29359    12.559141           29           63            4           12 
Setting up Verlet run ...
  Unit style    : metal
  Current step  : 138400
  Time step     : 0.001
Per MPI rank memory allocation (min/avg/max) = 5.148 | 5.148 | 5.148 Mbytes
Step Temp E_pair Volume TotEng Press Density Lx Ly Lz v_cNi v_cCo v_cFe v_cTi 
  138400    411.73626   -482.51086    1275.3455    -476.8162    14624.257    8.0892872    7.6388085     13.29359    12.559141           29           63            4           12 
  138410    390.74089    -482.2407    1277.0942   -476.83643    13164.259    8.0782106    7.6438922    13.296146    12.565582           29           63            4           12 
  138420    375.56577   -482.05189    1279.1077    -476.8575    11150.113    8.0654944    7.6499542    13.299337    12.572403           29           63            4           12 
  138430    374.87231   -482.06216    1281.3449   -476.87736    8243.9519    8.0514122    7.6568934    13.303044    12.579472           29           63            4           12 
  138440    378.95304   -482.13478    1283.7478   -476.89354    4939.3019    8.0363418     7.664564    13.307124    12.586589           29           63            4           12 
  138450    375.55014   -482.09842    1286.2502   -476.90425    1878.1158     8.020707    7.6727761    13.311467    12.593517           29           63            4           12 
  138460     372.4109   -482.05969     1288.789   -476.90893   -1073.2225    8.0049071    7.6813064    13.316028    12.600043           29           63            4           12 
  138470    383.89631   -482.21703    1291.3018   -476.90742   -4427.6258    7.9893298    7.6899103    13.320772    12.605994           29           63            4           12 
  138480    404.63748   -482.49655    1293.7187   -476.90008   -8037.1931    7.9744042    7.6983401    13.325581    12.611206           29           63            4           12 
  138490    418.29192   -482.67337    1295.9651   -476.88804    -11241.04    7.9605814    7.7063732    13.330245     12.61552           29           63            4           12 
  138500    418.27898   -482.65875    1297.9741    -476.8736   -13660.198    7.9482604    7.7138311    13.334532    12.618802           29           63            4           12 
Setting up Verlet run ...
  Unit style    : metal
  Current step  : 138500
  Time step     : 0.001
Per MPI rank memory allocation (min/avg/max) = 5.148 | 5.148 | 5.148 Mbytes
Step Temp E_pair Volume TotEng Press Density Lx Ly Lz v_cNi v_cCo v_cFe v_cTi 
  138500    418.27898   -482.65875    1297.9741    -476.8736   -13660.198    7.9482604    7.7138311    13.334532    12.618802           29           63            4           12 
  138510    409.40649   -482.52151    1299.6941   -476.85907   -15325.355    7.9377415    7.7205766    13.338278    12.620938           29           63            4           12 
  138520    394.38766   -482.30119    1301.0899   -476.84648   -16208.357    7.9292261    7.7265061    13.341423     12.62182           29           63            4           12 
  138530    370.27418   -481.95833     1302.143   -476.83713   -16208.489    7.9228135    7.7315545    13.344002    12.621348           29           63            4           12 
  138540    341.23692   -481.55112     1302.853   -476.83152   -15695.281    7.9184958    7.7357021    13.346106     12.61947           29           63            4           12 
  138550    324.30138   -481.31506    1303.2299   -476.82971   -15437.775    7.9162058    7.7389519    13.347825    12.616194           29           63            4           12 
  138560    333.18798   -481.43957    1303.2787    -476.8313   -15950.742    7.9159092    7.7412779    13.349199    12.611578           29           63            4           12 
  138570    361.59613   -481.83762    1302.9901   -476.83644   -16938.639    7.9176628    7.7425988    13.350203    12.605686           29           63            4           12 
  138580    387.07636   -482.19947    1302.3464   -476.84588   -17392.364    7.9215758    7.7428116    13.350788    12.598561           29           63            4           12 
  138590    391.62581   -482.27633    1301.3421   -476.85982   -16434.552    7.9276892    7.7418673    13.350946    12.590232           29           63            4           12 
  138600    379.57808   -482.12706    1299.9996   -476.87718    -14249.68    7.9358762    7.7398229     13.35076     12.58074           29           63            4           12 
Setting up Verlet run ...
  Unit style    : metal
  Current step  : 138600
  Time step     : 0.001
Per MPI rank memory allocation (min/avg/max) = 5.148 | 5.148 | 5.148 Mbytes
Step Temp E_pair Volume TotEng Press Density Lx Ly Lz v_cNi v_cCo v_cFe v_cTi 
  138600    379.57808   -482.09613    1299.9996   -476.84625   -14505.254    7.9358762    7.7398229     13.35076     12.58074           29           63            4           12 
  138610    370.53546   -481.98993    1298.3631   -476.86511   -12043.054    7.9458791    7.7368178    13.350348    12.570172           29           63            4           12 
  138620    375.90971   -482.08202    1296.4828   -476.88288   -9870.4628    7.9574028    7.7330118    13.349759    12.558699           29           63            4           12 
  138630    387.50303   -482.25686     1294.407   -476.89737   -7787.8338    7.9701639    7.7285554    13.348932    12.546599           29           63            4           12 
  138640    397.94853   -482.41081    1292.1814   -476.90685   -5652.1012    7.9838914    7.7235937    13.347719    12.534212           29           63            4           12 
  138650    408.75674   -482.56499    1289.8519   -476.91154   -3560.2011    7.9983103     7.718268    13.345958      12.5219           29           63            4           12 
  138660    419.10645   -482.70857    1287.4635   -476.91198   -1375.1072    8.0131485    7.7127014    13.343542    12.509999           29           63            4           12 
  138670     422.0613   -482.74636    1285.0626    -476.9089    1231.6244    8.0281194    7.7069991    13.340474    12.498782           29           63            4           12 
  138680    412.15916     -482.603    1282.7035   -476.90249    4379.9188    8.0428844    7.7012688    13.336898    12.488468           29           63            4           12 
  138690    393.00996   -482.32803    1280.4499   -476.89238     7788.332    8.0570398    7.6956435    13.333046    12.479244           29           63            4           12 
  138700     380.7213   -482.14516     1278.369   -476.87946    10775.719    8.0701549    7.6902886    13.329174    12.471261           29           63            4           12 
Setting up Verlet run ...
  Unit style    : metal
  Current step  : 138700
  Time step     : 0.001
Per MPI rank memory allocation (min/avg/max) = 